    6
Properties=species:S:1:pos:R:3:forces:R:3 energy=0.
C        0.0251090499        0.1037724273       -0.2110489292       -0.0265850534       -0.0172227805       -0.0238942047
H       -1.0350602458       -1.1710278227       -1.6951522299        0.0173169077        0.0297581960        0.0209513117
H        0.6384941674        2.0181003088       -0.6166916218        0.0013462815       -0.0032565035       -0.0073550230
H       -1.9733747672        0.3640182148        0.7338166190       -0.0054136153       -0.0027140155        0.0022004064
H       -0.6638623045        0.0273025685        1.9445821962        0.0022840484       -0.0008948470       -0.0000729936
H        1.4532897168       -1.2102395403        0.4256230600        0.0110514311       -0.0056700493        0.0081705030
    6
Properties=species:S:1:pos:R:3:forces:R:3 energy=0.
C       -0.1428348060        0.0864957094        0.0229255280        0.0181923351       -0.0184514595        0.0292548340
H        1.8279232721       -0.0596412820       -1.1377229605       -0.0063135650        0.0058845865        0.0035035231
H        0.0416900760        1.8926782407        1.0433055943        0.0091209925       -0.0102458299       -0.0026135832
H        0.3529418319        0.0926164655       -2.1152942959       -0.0005703766        0.0059552906       -0.0181822034
H       -2.0486293961        0.1173090500       -0.7359548670       -0.0101834533       -0.0073697189       -0.0102655602
H        0.2608870535       -1.8074881295        0.9301510665       -0.0102459327        0.0242271313       -0.0016970102
    6
Properties=species:S:1:pos:R:3:forces:R:3 energy=0.
C       -0.1615244455        0.0410370946        0.0188650365        0.0102257153       -0.0314276983       -0.0574341967
H        0.3599913381        1.7246338136       -1.5304564445        0.0010002922       -0.0157992062        0.0091078237
H       -1.8907992617       -0.5411098979       -0.9582918982       -0.0015419732        0.0083475322       -0.0009767330
H        1.7237152556        0.4421351738       -1.3388142764       -0.0155749542        0.0024838486        0.0124205616
H        0.7925371104       -1.8616687631        0.1582849187        0.0031599420        0.0151745618        0.0021146134
H       -0.3263559307        1.0169873953        1.7024881348        0.0027309780        0.0212209620        0.0347679310
    6
Properties=species:S:1:pos:R:3:forces:R:3 energy=0.
C       -0.0629287557        0.2114201326       -0.0195814357       -0.0047418915       -0.0190078294       -0.0098368462
H        0.4857861740       -2.0294197131       -0.3492771616       -0.0076046630        0.0109139947        0.0001868540
H       -0.9932089923        0.4106932467        1.8029937397        0.0069593947        0.0000325334       -0.0002744441
H        1.9632694911        0.5676116779       -0.2853059597        0.0024160156       -0.0016973956        0.0083351571
H       -1.1189982711       -1.5581470922       -1.1300406055        0.0102675705        0.0073176753        0.0066233097
H       -0.8609081671        1.3456431473       -1.5438019121       -0.0072964263        0.0024410216       -0.0050340305
    6
Properties=species:S:1:pos:R:3:forces:R:3 energy=0.
C       -0.0304515368        0.0096521516        0.0295407371        0.0090268193        0.0011920235       -0.0008630299
H       -0.3939063765        1.6597541061       -1.6485011989        0.0030175863       -0.0151113844        0.0114474749
H       -1.4792136268       -1.4829248268        0.3307138304        0.0064488304        0.0079287230        0.0007701591
H        1.9859609657       -0.5757626188        0.0754678755       -0.0158208746        0.0047341466       -0.0012768789
H       -0.5707069744       -0.0627557879       -2.1412452257       -0.0013534306        0.0037123249       -0.0086478120
H       -0.4559203805        1.6192861659        1.2886667462       -0.0013189307       -0.0024558336       -0.0014299132
    6
Properties=species:S:1:pos:R:3:forces:R:3 energy=0.
C       -0.1399823475        0.1279474349       -0.1921397866       -0.0207938112        0.0098224878       -0.0118636926
H        0.7405865775       -1.8318237787        0.1621541552        0.0015944245       -0.0047541211        0.0056108976
H       -2.2096367141       -0.5148778066       -0.2283319132        0.0304546472        0.0043843837        0.0019597573
H       -0.2248630851        1.7596712958        1.1708216914        0.0033474487       -0.0050949019       -0.0032741614
H        1.3072526857       -0.3882909255        1.4323240439       -0.0069065282       -0.0025211335       -0.0032262115
H        0.7872438715        0.7133748533       -1.9716996647       -0.0076961810       -0.0018367151        0.0107934106
    6
Properties=species:S:1:pos:R:3:forces:R:3 energy=0.
C       -0.1898904754        0.0995811667       -0.0019470210       -0.0212073061       -0.0156823338       -0.0026341647
H        0.3789418821        1.6997597979        1.2199022170        0.0057861206       -0.0053910806       -0.0058401736
H        1.0165295862       -0.8744124850       -1.7781614508       -0.0111970462       -0.0044002582       -0.0000842549
H       -1.8616654992        0.6306241412       -1.1549609618        0.0119721357       -0.0031508373        0.0055653902
H       -0.3568223942       -1.7045318087        1.0476981187        0.0008804901        0.0121282543       -0.0029066675
H        1.8224972955        0.3270092112       -1.0515227977        0.0137656059        0.0164962557        0.0058998705
    6
Properties=species:S:1:pos:R:3:forces:R:3 energy=0.
C       -0.0148166692        0.1275621242       -0.0089902770       -0.0213041114        0.0223475743        0.0530303651
H        1.9016960261        0.7245156045        0.3078474556        0.0078546860       -0.0049625194       -0.0019539710
H       -0.4804888673        0.5544906454       -1.9569995498       -0.0098786137        0.0212902835       -0.0450759521
H       -1.5600184234        1.4180978510        0.8130004107        0.0193606603       -0.0188420850       -0.0149491261
H       -0.5334131843       -1.6801294192        0.8338169809        0.0016578237       -0.0126118485        0.0128333810
H       -0.4291803546       -1.2742973148       -1.6301911000        0.0023095551       -0.0072214048       -0.0038846969
    6
Properties=species:S:1:pos:R:3:forces:R:3 energy=0.
C       -0.0793740669        0.1854688588       -0.0197465878       -0.0251469913        0.0054194345        0.0153007336
H        1.2526187547        1.3362219770       -0.9733811892        0.0213113613        0.0138161053       -0.0128163856
H       -0.2549543610       -2.0275114006       -0.5199748560       -0.0013811284        0.0013426484        0.0055334919
H       -1.9276008581        1.1173253245        0.1664086718        0.0061815733       -0.0095776467        0.0042703660
H        0.8504834445       -0.4344253389        1.7226659486       -0.0015077978       -0.0036924645        0.0015878977
H       -0.2472630110       -0.9438140103       -1.8991686487        0.0005429830       -0.0073080771       -0.0138761036
    6
Properties=species:S:1:pos:R:3:forces:R:3 energy=0.
C       -0.2134560954        0.0659565131       -0.1557016468        0.0037680101       -0.0356710425        0.0319780288
H       -0.8163669972        1.0912983507       -1.7094030115       -0.0163831917        0.0253194521       -0.0252148742
H        2.0024328718        0.0420983277       -0.1333141311        0.0073034404       -0.0004404797        0.0001297253
H        0.1490512676       -1.9466805827       -0.6815397572       -0.0029011397        0.0048863834        0.0065757284
H       -1.2882798065        0.0233536564        1.6692229968        0.0015422258       -0.0010929503       -0.0155307828
H        1.2354309748        1.2718749485        0.9830445377        0.0066706551        0.0069986371        0.0020621747
    6
Properties=species:S:1:pos:R:3:forces:R:3 energy=0.
C        0.0243877891        0.0204510083       -0.0506616478        0.0013072274       -0.0271538819        0.0028268884
H        0.4262527446       -0.0534642906        1.9665722660        0.0031165325        0.0093785226       -0.0028732378
H       -1.1920957214        1.6790076452       -0.8320725479       -0.0060971074        0.0007976010        0.0026574265
H        0.0045883932       -1.8534347200       -0.9829922844       -0.0026642116        0.0080562440        0.0002870347
H        1.3755909568        1.0933671907       -1.2299630691        0.0026340682        0.0041553548        0.0023610355
H       -2.1861946769        0.1625349321       -0.0540137176        0.0017034909        0.0047661595       -0.0052591473
    6
Properties=species:S:1:pos:R:3:forces:R:3 energy=0.
C       -0.1411915541       -0.0718100821       -0.1105518090       -0.0133363430        0.0156302556       -0.0028510432
H       -1.6675562423       -0.0151498949        1.2969741309        0.0019920758       -0.0025364201       -0.0048573055
H        0.6764164584        1.9970074429       -0.7771010921       -0.0056247817       -0.0030282694       -0.0014255943
H       -0.9390710805       -0.2013011131       -2.0818198093        0.0092828311        0.0053974307        0.0142740142
H        1.4018122503       -1.3035354751        0.2319632651        0.0102437001       -0.0220023636       -0.0003213116
H        0.9434924286        1.6581228831        0.9161960863       -0.0025574824        0.0065393669       -0.0048187595
    6
Properties=species:S:1:pos:R:3:forces:R:3 energy=0.
C       -0.1480135951       -0.0486145386       -0.1840388217       -0.0054351591        0.0173322393        0.0125035380
H        1.0886142756       -1.6220606036       -0.3640222816        0.0109573944       -0.0136075072        0.0044953041
H        0.5230110446        1.3365538429        1.4997496658        0.0035731555        0.0046431304       -0.0027625655
H       -1.6658930943       -0.2962763073        1.3251935394        0.0080505077       -0.0003801858       -0.0203823052
H       -0.8262680721        0.6498831150       -2.0088682629       -0.0076357361        0.0053417612        0.0071664304
H        1.3774941537        1.7886972735        0.0160040721       -0.0095101624       -0.0133294379       -0.0010204018
    6
Properties=species:S:1:pos:R:3:forces:R:3 energy=0.
C       -0.1242017151       -0.0405605953       -0.0607099387       -0.0091423246        0.0154332384        0.0329916218
H        0.7753412710       -0.7442439947        1.6896905573       -0.0063844615        0.0120718164       -0.0038932558
H        0.2298405423        2.0964907535       -0.7957121220        0.0000251834       -0.0106483116        0.0025236490
H       -1.9827984907        0.9264674672        0.3451920238        0.0120520176       -0.0035261533        0.0030359856
H       -0.4876845816       -1.4629793464       -1.3836881579       -0.0029404801       -0.0171146407       -0.0291536081
H        1.6765170063        0.9444151206       -0.8673721644        0.0063900653        0.0037840508       -0.0055043926
    6
Properties=species:S:1:pos:R:3:forces:R:3 energy=0.
C        0.0568424744        0.1108045530       -0.1349971562       -0.0034103342        0.0162946404        0.0248556446
H        0.6589529330        1.8108818628        0.9071199108        0.0016996832       -0.0079880023       -0.0084202524
H       -1.9715190736        0.7017833482       -0.7360439633       -0.0060213436       -0.0011558464       -0.0017798891
H        0.4748887530       -1.5582861353        1.0276920929        0.0026106894       -0.0077480440        0.0071759451
H        0.7992192752       -0.3543085545       -1.9673225488       -0.0001788648       -0.0007796880       -0.0117027454
H       -1.9228564152       -0.6563023001        0.6481112554        0.0053001700        0.0013769402       -0.0101287027
    6
Properties=species:S:1:pos:R:3:forces:R:3 energy=0.
C       -0.2062294796        0.0556861996       -0.1243075220       -0.0037098941        0.0155803395       -0.0102599568
H       -0.9677847772        1.3462253024       -1.5949323227       -0.0003126692       -0.0167458166        0.0060864402
H        1.8469899923        0.4886104718        0.4270482833        0.0093391500       -0.0022838978        0.0016821878
H        1.5135072090       -0.8735097355       -1.1670359367       -0.0017399554        0.0106704266        0.0063926654
H       -1.0284312783       -1.7250021701        0.4975085579       -0.0073220006        0.0034083290        0.0004419758
H       -0.1687322246        1.3688645935        1.5886925557        0.0037453691       -0.0106293807       -0.0043433123
    6
Properties=species:S:1:pos:R:3:forces:R:3 energy=0.
C        0.0527077760       -0.0122223364       -0.0870369446       -0.0108263958       -0.0064921535       -0.0003398767
H        0.0996485126       -0.0895449404       -2.1638426514        0.0109676493       -0.0106138563       -0.0045531527
H       -2.0592160201        0.5627034735       -0.7887904935        0.0081843664        0.0001874994        0.0097040885
H        1.4940230497        1.3610004123        0.4532321756        0.0008316817        0.0053289671       -0.0017829539
H        0.0230251232       -1.7646441343        1.0376758664       -0.0021447345        0.0067367953       -0.0119252185
H       -1.4691788116        1.3505760829        0.7657593105       -0.0070125672        0.0048527481        0.0088971132
    6
Properties=species:S:1:pos:R:3:forces:R:3 energy=0.
C        0.0111007412        0.1009922881       -0.2036658812        0.0137751341       -0.0079933338       -0.0072086852
H       -0.7533422015        1.0071545089       -1.8536501521       -0.0015334948        0.0093109526       -0.0035145884
H       -1.0717797431        1.0002890118        1.5336145555       -0.0055843422       -0.0078018988       -0.0049208208
H        1.7303512784        0.8603039305        0.7042341630        0.0014699897       -0.0090025060       -0.0089734925
H        0.2156192888       -2.0059091620       -0.6857376756        0.0046219317        0.0197392759        0.0125536797
H       -1.5332623512       -0.8003228891        1.0051205566       -0.0127492185       -0.0042524899        0.0120639072
    6
Properties=species:S:1:pos:R:3:forces:R:3 energy=0.
C       -0.0601180226        0.0422459229       -0.2423134097        0.0058627520        0.0065138660        0.0033541612
H        1.3435090997        1.5899278573       -0.0737854681        0.0036030434        0.0016924945        0.0015827532
H       -1.1930580953       -0.7472456039        1.5745153108        0.0035050625       -0.0051257650       -0.0084504477
H        0.9288981048       -1.5779011214       -1.0886284750       -0.0071316724        0.0004753108        0.0128439734
H       -1.6164480363        0.9115071084       -1.1829270018       -0.0133760905        0.0010319479       -0.0112149649
H       -0.0206896356        0.5901835426        1.9381774230        0.0075369050       -0.0045878542        0.0018845250
    6
Properties=species:S:1:pos:R:3:forces:R:3 energy=0.
C       -0.1326345235        0.0938144181       -0.2420257272        0.0020284177        0.0057451107        0.0089406468
H        1.1208976904       -0.0047571401       -1.8776779022        0.0003622672        0.0095582934        0.0053202487
H        0.8771501101       -0.8948722302        1.6669331145       -0.0061925507        0.0124181400       -0.0165442278
H       -1.2383508573       -1.6233295027       -0.1799404262       -0.0114206149       -0.0098898141        0.0065136883
H       -1.4633025799        1.7170492127        0.0867683698        0.0087208036       -0.0122893113       -0.0092605184
H        1.0160150845        0.9535595007        1.4678164430        0.0065016772       -0.0055424187        0.0050301624
    6
Properties=species:S:1:pos:R:3:forces:R:3 energy=0.
C        0.0414852001        0.1616831907       -0.1490170285        0.0003667102       -0.0201615498       -0.0115611159
H        1.7872836397       -0.7649231965        0.4924736645       -0.0047079948        0.0037866139        0.0034602566
H       -2.0117599570       -0.9376519362        0.1344138725        0.0100550978        0.0050886002       -0.0068234812
H       -0.2602201988       -0.5990637201       -2.0495583458       -0.0022584706       -0.0006584695       -0.0070760176
H       -0.1477363897        2.1659440222       -0.1062104205       -0.0005022761        0.0139157724        0.0029218079
H       -1.1445943294       -0.5310806001        1.5766764447       -0.0029530666       -0.0019709672        0.0190785502
    6
Properties=species:S:1:pos:R:3:forces:R:3 energy=0.
C        0.0510206018        0.0641641016       -0.0099193955        0.0068049657       -0.0162441620       -0.0010505200
H       -0.1049366446       -1.4236109053        1.4447244023        0.0019002879        0.0149235752       -0.0017297441
H       -1.6222388799       -0.0391726672       -1.4594810263       -0.0046951168       -0.0069761869       -0.0181885818
H        0.9001750397       -0.8211500760       -1.7110292335        0.0025041726        0.0010111143       -0.0002409825
H        0.9624152176        1.8944318185        0.2173093438        0.0012534023       -0.0012605356        0.0066796096
H       -2.0268667891        0.8929554677       -0.1128998675       -0.0077677118        0.0085461950        0.0145302187
    6
Properties=species:S:1:pos:R:3:forces:R:3 energy=0.
C       -0.0725491738       -0.0359904584       -0.1848915281        0.0066161913       -0.0257823325        0.0180904488
H       -0.2284520205       -1.2832643841        1.6687025011        0.0100024245        0.0189108028       -0.0324523116
H        0.6705424444        1.3947909094        1.2788158690       -0.0017296519        0.0087585671        0.0113566511
H       -2.0060507461       -0.2440990291       -0.8830109277       -0.0024701060        0.0060973713       -0.0026201483
H        1.4979322050       -0.3435455656       -1.5054927082       -0.0087197713       -0.0075435498        0.0064208691
H       -0.3425866313        2.1814264270       -0.0807255247       -0.0036990866       -0.0004408590       -0.0007955092
    6
Properties=species:S:1:pos:R:3:forces:R:3 energy=0.
C       -0.0633259677        0.0438534810        0.0405069056       -0.0320036827        0.0117783737       -0.0443859476
H       -0.1997432975        1.4975075811        1.4367743508        0.0016811068        0.0123671732        0.0083110206
H        1.5289835389        0.8007694284       -1.1842143659        0.0060252094        0.0055265490       -0.0094964192
H       -2.1085267509       -0.1785591741       -0.6032714240        0.0072341804        0.0029632076       -0.0014302921
H        0.5156658109       -1.7895222514        0.4056095744        0.0143366225       -0.0352653356        0.0150190541
H       -0.2556725230        0.4169855018       -2.2813901295        0.0027265637        0.0026300320        0.0319825842
    6
Properties=species:S:1:pos:R:3:forces:R:3 energy=0.
C        0.0369255676       -0.0087214053       -0.0548278457       -0.0025878837        0.0051854819       -0.0314369883
H        1.5208534763        1.4163126596        0.0479535835        0.0040211175        0.0055791705        0.0033555185
H        0.5592655674       -1.3144022244       -1.6059439565       -0.0078058553        0.0112100462       -0.0010371825
H       -1.3234538049        1.8680256727       -0.2543015171        0.0046754312       -0.0102256844       -0.0047452785
H       -0.4067451347       -0.9525318245        1.6021784416       -0.0031279041       -0.0140466852        0.0378221089
H       -2.0722317498        0.3606754379       -0.8723615301        0.0048250944        0.0022976710       -0.0039581781
    6
Properties=species:S:1:pos:R:3:forces:R:3 energy=0.
C       -0.1308117271        0.0497635948       -0.2195082026       -0.0266220451        0.0018745266       -0.0034313611
H        1.7360321836       -0.1818512863       -1.1351945104       -0.0003045245       -0.0010126788       -0.0043259858
H       -0.5427914879        2.0631631633       -0.5892583503        0.0011624670       -0.0024909814       -0.0041144248
H       -0.4298286947        0.6449568014        1.9158155761        0.0066566746       -0.0077190614       -0.0058796355
H       -1.6540041951       -1.3396059678       -0.7177221346        0.0208487423        0.0124601781        0.0062942164
H        1.1811280844       -0.5104029914        1.4200487232       -0.0017413143       -0.0031119831        0.0114571909
    6
Properties=species:S:1:pos:R:3:forces:R:3 energy=0.
C       -0.0162445718        0.2174656485       -0.1323933946       -0.0007401778       -0.0135321588       -0.0286030242
H       -1.8542981089        0.4628455699       -1.2573165907        0.0163844655        0.0049556294        0.0081225278
H        1.5475520552       -0.1661154128       -1.4880792991       -0.0110815110        0.0107222925        0.0077171963
H        0.3421226138       -1.6202554229        1.0418126405       -0.0001300609       -0.0064712207        0.0054826967
H        0.1856265615        1.5758868483        1.3833539920       -0.0033917475        0.0040368770        0.0008494026
H       -1.3052730945       -1.5885265076        0.1685408651       -0.0010409682        0.0002885806        0.0064312008
    6
Properties=species:S:1:pos:R:3:forces:R:3 energy=0.
C       -0.0625251925        0.1400103403       -0.0005390009        0.0074005406       -0.0160726424        0.0138690508
H        1.1136308700        1.4546963881       -1.0962127761        0.0063342933        0.0024023261       -0.0085044856
H        1.1597055912       -0.7437253393        1.4158167829       -0.0007335958       -0.0001614794       -0.0054969450
H       -1.1843485192       -1.6888412249       -0.7153661059        0.0071369997        0.0127336320       -0.0025437244
H       -1.5722248254        1.2898155394        0.7211942953       -0.0138395775        0.0019277381       -0.0024373434
H       -0.0456656408       -0.7186465899       -2.0593733120       -0.0062986602       -0.0008295744        0.0051134476
    6
Properties=species:S:1:pos:R:3:forces:R:3 energy=0.
C       -0.0375350407        0.0609986261       -0.2043054662        0.0285927521       -0.0322446249       -0.0002616547
H       -1.7346885935       -0.6061398722       -1.1479283252       -0.0119279304        0.0052619791       -0.0061068905
H        1.4884867292       -1.3783720072       -0.3663656232       -0.0102653049        0.0116989228        0.0080599928
H       -1.1952293703       -0.4577163675        1.6267567814        0.0075972875        0.0142676384        0.0004419013
H        0.5712141319        1.8006815218       -1.1326024743       -0.0081702268        0.0104878807        0.0021745792
H        0.0414327568        1.1829860694        1.7313961087       -0.0058265775       -0.0094717961       -0.0043079280
    6
Properties=species:S:1:pos:R:3:forces:R:3 energy=0.
C       -0.2240962256        0.0181684072       -0.1239130441        0.0085458701        0.0043220493        0.0177947650
H       -1.1138577770        1.8439604350       -0.6029606605       -0.0103173024       -0.0098832834        0.0031239325
H       -0.3870125230       -0.2820862288        1.9941200020       -0.0009030673        0.0074765495       -0.0155937018
H        1.6009982559        0.9870623013       -1.0788134818        0.0029859913       -0.0094824067        0.0020927482
H       -0.6717909082       -1.7563166849       -1.1337262488        0.0078931173        0.0145648371        0.0002590702
H        1.9816128254        0.2627821483        0.5679277905       -0.0082046092       -0.0069977457       -0.0076768141
    6
Properties=species:S:1:pos:R:3:forces:R:3 energy=0.
C       -0.1925204637        0.1077371825       -0.0841217634       -0.0288440463        0.0063321310        0.0217926006
H       -0.0963233213        1.8509895580       -1.2143887341        0.0094617219        0.0024294668       -0.0008876615
H       -0.5749092455        0.7361473836        1.9615451201        0.0099930863       -0.0120254335       -0.0301559613
H        1.4171718691       -1.3712532377        0.3860416697        0.0004729069       -0.0019534135        0.0016191306
H       -1.6390541882       -1.0769816185       -1.0197572580        0.0110178338        0.0008841285        0.0081238070
H        1.9241556160       -0.1583254186       -0.8443887637       -0.0021015027        0.0043331206       -0.0004919153
    6
Properties=species:S:1:pos:R:3:forces:R:3 energy=0.
C       -0.1398051894        0.0229672658        0.0099878270       -0.0216432964       -0.0168931167       -0.0248366805
H       -1.3501323307        1.5539066778        0.6192338661       -0.0052711040        0.0088855776        0.0038143994
H        1.5041045291        0.2201807493       -1.4714008083       -0.0008370015        0.0067046660       -0.0071240468
H       -0.0827451506        1.1142110379       -2.0086657327        0.0078073464       -0.0074967042        0.0104247385
H        1.3797047641       -0.0899911038        1.3240161433        0.0200772891        0.0026525241        0.0166935913
H       -1.0524743739       -1.8004916937       -0.3234465200       -0.0001332336        0.0061470532        0.0010279981
    6
Properties=species:S:1:pos:R:3:forces:R:3 energy=0.
C       -0.0837108518       -0.0531477320       -0.1122852842        0.0003573760        0.0038793154       -0.0004853700
H       -0.4750952452       -0.4370196140       -2.1090111053        0.0085466986        0.0021483906       -0.0025088663
H        1.5019345883        1.4343348037       -0.5179108578        0.0017692126       -0.0008027880        0.0024098366
H        0.1360676676        2.1221743846        0.7143050713        0.0003315531       -0.0225741221       -0.0087957934
H       -1.9936822533        0.3797158980        0.4296322532       -0.0216208442        0.0116112013        0.0099356619
H        0.5561006295       -1.5880098315        1.0899989225        0.0106160039        0.0057380027       -0.0005554688
    6
Properties=species:S:1:pos:R:3:forces:R:3 energy=0.
C       -0.1231711594        0.0034117736       -0.1909814463       -0.0000322545       -0.0071741208       -0.0138160467
H       -1.0859256897        1.8856477945       -0.6085687329        0.0061469466       -0.0078889341        0.0026331537
H        1.3440406142       -0.3800956227        1.5222204507       -0.0141766016        0.0049862859       -0.0142297609
H        0.5236347764        1.4202925184        1.2102866600        0.0106890576        0.0197981381        0.0235104966
H       -1.6174699196       -1.2741827880        0.2239279262       -0.0120030533       -0.0102046130        0.0097680137
H        1.0345692975       -0.4191803275       -1.7964980759        0.0093759053        0.0004832439       -0.0078658564
    6
Properties=species:S:1:pos:R:3:forces:R:3 energy=0.
C       -0.2351425750        0.0745782781       -0.1383598649        0.0255229394        0.0169247286        0.0129438886
H       -0.6476501467       -0.6375772005        1.7800285019       -0.0011874619       -0.0011726593        0.0007988867
H        1.9316447837        0.6882821539       -0.7747530053       -0.0106847373       -0.0098156185        0.0094414493
H        1.9205378377       -0.6581004804        0.5838180282       -0.0157843099        0.0146906315       -0.0128195013
H       -0.8948047563       -1.1619855409       -1.6155188797       -0.0034621069        0.0009652541       -0.0055056209
H       -0.7672216532        2.1478645882       -0.0536653928        0.0055956766       -0.0215923364       -0.0048591023
    6
Properties=species:S:1:pos:R:3:forces:R:3 energy=0.
C       -0.0900673643       -0.0557673452       -0.0443981654       -0.0001934989       -0.0027617292       -0.0195125381
H       -1.3159688961       -1.4607537847       -0.9592306665        0.0064782627        0.0085631646        0.0005290175
H        0.5421692547        1.5676050631       -1.5672362836       -0.0092994618       -0.0044264719        0.0118972187
H       -0.9022859503        2.0352007605       -0.4751770413        0.0030099468       -0.0057535672       -0.0019460357
H       -0.4768328391        0.2398070281        1.9430648401       -0.0005850024        0.0076636894        0.0087224314
H        1.9545219682       -0.4392280678       -0.1490519914        0.0005897537       -0.0032850858        0.0003099061
    6
Properties=species:S:1:pos:R:3:forces:R:3 energy=0.
C        0.0000744618        0.0531656820        0.0055391547       -0.0024020224       -0.0088745186        0.0327362615
H        1.6970314385       -0.5733442489       -1.0567783372       -0.0010436171       -0.0021575034        0.0043500603
H       -0.8808557006       -0.4640179716       -1.9217150301       -0.0065391055        0.0012487157       -0.0088538203
H       -1.8022531392        0.8789955827       -0.9187860658       -0.0049882620        0.0025271798       -0.0077281426
H       -0.7680700863       -1.2259637415        1.5302441611        0.0160769147        0.0136398224       -0.0183804388
H        0.4740491114        2.0197650523        0.5601562888       -0.0011039076       -0.0063836959       -0.0021239199
    6
Properties=species:S:1:pos:R:3:forces:R:3 energy=0.
C        0.0818541058        0.1494216342       -0.0954428788       -0.0185173356       -0.0374252234        0.0286228190
H        0.3627516140        0.8466148086        1.8209536464        0.0031686149        0.0034365231       -0.0029024903
H       -1.7421666698       -1.1703832275       -0.3475194363       -0.0031993857       -0.0066403025       -0.0006118702
H       -2.2308088106        0.4746996597       -0.1180602502        0.0070591834        0.0039801816        0.0014896600
H        0.4900655092        1.1723451855       -1.7204041559        0.0126661046        0.0225518921       -0.0274056081