21
Properties=species:S:1:pos:R:3:forces:R:3 energy=-406284.95145882585
H 0.58380341 -2.30661434 2.92540716 21.499468007585484 24.73241224470794 -31.15545819036208 
H 2.82942396 -0.48126326 1.04656392 23.157155708261623 -9.079028952578113 25.626872316835755 
H 0.01119539 0.91859978 -2.64670417 1.4124599082497766 -1.5188090829884882 -25.337932788991505 
H 4.03188522 0.12561882 -0.9426853 -2.6379525979111995 -6.696963492480703 -14.516957621274706 
H 2.65646206 0.61782884 -3.09208914 1.9166650881372307 7.225602515032302 -18.7092132977397 
H -3.56464125 -0.51199946 -0.53313645 0.12398589116403658 -16.632467111602526 -4.606691831486589 
H -4.16908467 0.73362453 0.56335412 -2.8939310439455723 6.40188734072056 7.978258548950635 
H -3.93180493 1.10289234 -1.15031451 -9.401173841367834 11.413631925287397 -15.792340174006545 
C 2.28107917 -0.23790612 0.17153941 17.377564722170156 -0.9415039646865135 -7.276104261762736 
C 0.7420757 0.45489753 -1.9914561 -8.958838874584082 -0.1713855300366981 18.2852799019563 
C 2.93391082 0.01774427 -1.01961531 -10.368570208605748 24.75646781045824 -22.711270393264503 
C 2.14350373 0.37476986 -2.17647189 -3.771680525885419 -9.144632130336353 52.66828447203694 
C -3.53735722 0.54660501 -0.31077429 14.455242750728106 4.972677710188277 20.99418491636672 
C 0.91767253 -0.24551483 0.31990931 -35.36716488945361 -51.1913621458757 40.00526674882121 
C 0.11847208 0.08113415 -0.76614727 -21.972101887929618 17.69047087918621 -5.485719628514615 
C 0.27440123 -1.04898853 1.5026588 35.36580949599742 27.21197946871576 -25.523166337209805 
C -2.10542348 1.00418464 -0.10549046 25.247949130516222 36.72796568963153 -8.761099657608877 
O -0.9055433 -1.03531866 1.69617489 -38.21183811294659 -7.005501084761273 18.752825424189687 
O -1.6737373 2.10501337 0.24623684 -20.57956495908291 -46.44194489322646 -5.919441977037283 
O 1.15053222 -1.7987588 2.22985192 -18.252005763390127 -14.59842471299368 20.587828945956314 
O -1.30212834 0.00600655 -0.64607741 31.85852200229268 2.2889275176383035 -19.103403930033565 
21
Properties=species:S:1:pos:R:3:forces:R:3 energy=-406266.99677247944
H -0.66903919 -2.92523726 1.80038633 -20.550314311327682 -9.66614436839819 7.838056554975039 
H 1.93979025 -2.44445381 -0.13918149 0.5138044012592692 -3.128278928269843 -4.3816894028301725 
H 1.51903199 2.43312946 -0.54391174 -8.70960656448353 36.23274547581378 -7.172424370199807 
H 3.90247406 -0.88729957 -0.84817882 9.782217275718603 -19.754502692062285 -4.309555908568589 
H 3.44141636 1.29979901 -1.59890387 45.24491428032431 35.77021953407043 -18.558387533008073 
H -3.69905296 1.29612844 0.10689651 -22.621738532607946 14.289874076681595 -9.242595178633868 
H -3.00494491 0.4770249 1.48315494 12.711126483074237 12.582957015257975 -7.880051221517531 
H -2.83759086 2.27544877 1.46181906 -12.143546283175013 8.28377348338355 1.236562329130959 
C 1.79834125 -1.38568338 -0.37788807 50.57972039334986 14.263841747246705 7.195849079153338 
C 1.51996878 1.37464931 -0.64760492 27.354185500260026 43.18325055207819 -8.055481587144007 
C 2.88398 -0.53894372 -0.72125465 7.770800342677914 -21.75553301855626 -24.958958612366963 
C 2.7251082 0.79864706 -1.04256887 -49.964126299275854 -45.0858352011087 27.336540483087372 
C -2.89861384 1.38446172 0.82168692 41.3578592957149 -13.03135271341064 0.38506692516171026 
C 0.61641963 -0.77153059 -0.07819347 -14.758405016204668 62.34980301030363 3.546975738311686 
C 0.50907578 0.6862659 -0.10779286 -8.39341212570539 -75.1789945800565 28.08985464768654 
C -0.44869248 -1.44555172 0.58329209 -57.913584812468955 -48.518188291239895 13.495751066586488 
C -1.61074951 1.34379516 -0.07800914 -107.0925552804037 -15.250837364741983 -45.84052966140605 
O -1.64846727 -1.11389925 0.53117512 45.49595733916295 -31.163852617550596 15.838881278441505 
O -1.74527777 1.29479543 -1.32934602 37.97883850715224 8.93265831751837 75.94697379353835 
O 0.04211239 -2.59080793 1.24791527 -4.95280453526916 36.086153092218325 -17.743058485137528 
O -0.51016824 1.22859162 0.67915647 28.310672313869684 10.558242285001281 -32.76777993526038 
21
Properties=species:S:1:pos:R:3:forces:R:3 energy=-406276.7637107147
H 0.58438761 -3.10238719 1.81500211 -18.635605827917264 -6.558708616663542 -8.746246063179802 
H 2.84056738 -1.39768194 0.38846478 -19.18550425019139 27.782110369686116 -0.8399953114598155 
H 0.31289221 2.857252 -0.86200074 20.96483940292777 -27.42223146937415 0.4770071883638034 
H 4.06988125 0.5839494 0.0752816 7.497953592256379 12.407933386250464 -23.777738551478453 
H 2.86924371 2.73379713 -0.6799494 35.49653322234794 59.160138869738134 -9.252519314972439 
H -3.5915026 -0.07763104 -1.47597075 0.0532196485691246 -7.563423958057403 -24.680837329930384 
H -4.27949766 0.26837531 0.04643785 -22.623691579871615 -7.5255215599465535 33.311969815016425 
H -3.86940795 1.70763888 -1.01218057 12.189028449415403 -41.07337134007939 9.766010659475418 
C 2.30117336 -0.42818389 0.10049697 -20.999961050684462 -50.265737510823534 10.179697375595591 
C 0.91204598 1.90106903 -0.65313517 41.433276328454376 50.56343907038073 -17.02573280348008 
C 3.03466215 0.65133162 -0.30642388 1.578227018167925 33.7747435933585 24.33249646840134 
C 2.33940083 1.8563896 -0.59107971 -38.235041073364414 -46.790090094282824 11.8105570609146 
C -3.57271056 0.62403549 -0.65588397 38.725738565710635 55.841474000802734 -21.57077972786181 
C 0.87588811 -0.38850885 0.09129723 11.404250894988147 -32.70819835677652 -10.167785803183005 
C 0.25513707 0.73005367 -0.46239415 -73.19366808168198 -20.499237441389674 -12.798394611352927 
C 0.1333105 -1.63811913 0.49211611 46.53521920510593 11.55515136644571 17.596453057510566 
C -2.15427686 0.59571968 -0.05142535 6.724397462392618 -10.752228378364158 22.768590611012588 
O -0.86865258 -2.05976324 0.01733358 -46.523349136429964 -20.724809064148435 -18.567381985646147 
O -1.90962033 0.40618224 1.13325591 -9.547811286163055 9.537584765457614 -21.595441248166892 
O 0.86899799 -2.24338346 1.46797866 17.646482847464473 12.248966960034274 7.64620849695909 
O -1.1198989 0.74160362 -0.98242664 8.695466834324476 -0.9879822206060064 31.133862017462327 
21
Properties=species:S:1:pos:R:3:forces:R:3 energy=-406279.3713216611
H -0.86655053 -1.43368575 2.86050116 9.395611154838473 14.035746697300889 -6.56634767584541 
H 2.29273399 -2.13412159 -0.11042139 -3.3861048834947396 -2.8360179156742062 14.593813054943649 
H 0.34829058 2.0517934 -1.6399306 -49.15827551903037 97.74774707084148 -43.014549720890884 
H 3.36631766 -0.85672809 -2.01192168 28.112325956518646 -25.22222155709029 -9.54634916881266 
H 2.35215479 1.12409283 -2.91797049 0.39034857210304 -3.874293178506454 -6.196162804817892 
H -2.95846325 2.73303815 0.33870872 -3.393066838859029 -10.422408855761171 11.905624334216443 
H -4.07367372 1.45160806 -0.22268636 -15.690626373738795 -4.40843441071404 -22.67269444879921 
H -3.33747586 1.1594578 1.28461823 3.2742463841737606 8.827620660857143 21.151586058801463 
C 1.87945865 -1.16412945 -0.39656675 62.78892203040915 6.774760468060605 -38.053472898001 
C 0.84721249 1.22292441 -1.42414783 18.952094350314944 -94.460108023768 64.51096186763941 
C 2.51288442 -0.52587724 -1.47833315 -53.203090949851635 21.657482219501293 -9.617011059155475 
C 1.88492365 0.61380279 -2.06482577 42.69202062608208 0.8476414855679643 6.103854937091369 
C -3.1626153 1.63039924 0.31514619 19.00918096131686 12.823372745877437 20.61755985123539 
C 0.87519153 -0.51461311 0.29173265 -13.092148572646167 -54.564504819510624 35.31405789388391 
C 0.34027175 0.63304899 -0.23341606 -7.7673448601482695 24.052463642437722 -37.90858216760735 
C 0.44127522 -1.30523283 1.49536698 2.8549732651032946 -15.83023427137007 57.06122138749363 
C -2.00339315 0.95197938 -0.33533844 -17.0918731581724 13.671476701653555 -39.81285423998709 
O 1.00970074 -2.31920771 1.96895589 -27.722671089727836 43.80531685742425 -37.01234099226761 
O -2.15319131 0.41852884 -1.41514467 20.25912765260022 -15.358062861234092 4.959022980837264 
O -0.60213554 -0.72286366 2.21105217 4.528445429730045 -24.43943143873705 -14.325299294626204 
O -0.78689569 1.20804698 0.26298382 -21.752095323342314 7.172088782843633 28.507962104668252 
21
Properties=species:S:1:pos:R:3:forces:R:3 energy=-406272.3862615877
H 0.67281363 -1.75155737 3.15140506 16.65999476137712 21.7171183457533 -57.48995617269451 
H 2.72874209 -1.32002968 0.55874881 23.391953018762536 -13.763998017168458 12.730909535593817 
H 0.3271209 1.65773162 -2.43590645 -10.141011149772973 -6.555509271479952 -0.8356789228503767 
H 4.00315083 -0.3764661 -1.19105198 4.853551313672998 2.2448671508327243 -20.032280086395374 
H 2.70449101 1.26073384 -2.87404466 19.27911296360598 16.850118635591386 -35.9953227575158 
H -4.09299443 1.10017825 -0.98473943 -2.4179258743661034 6.4683134782851015 -3.639714059078107 
H -3.60039279 -0.54060347 -0.60665712 0.24911372799589995 -43.027587823297694 -15.95945200499148 
H -4.0824587 0.51566904 0.73130165 -2.052470057672222 2.1356506608034573 -1.5933474223324728 
C 2.25363831 -0.69372218 -0.16742645 -24.936958074490338 -4.078122772376736 35.74149183339673 
C 0.8507675 0.91187798 -1.82338336 52.514107577027765 11.613913542586404 -38.62895896681757 
C 2.92773921 -0.16999403 -1.25426768 -0.12587608991223587 0.6711652257784307 2.489084623727423 
C 2.22658492 0.65340923 -2.16044554 -42.2297638657163 -4.124567825306925 65.42802487473551 
C -3.59094786 0.45165429 -0.25597849 44.1950843772145 46.542319901532665 22.822846667176403 
C 0.8940997 -0.44816212 0.17721452 25.405193744572816 -37.10588685716673 20.57779808572355 
C 0.2641762 0.2948384 -0.74057777 -114.45449638444194 17.646622774347964 -41.70783896193027 
C 0.14094359 -1.0230853 1.39200075 61.48374098059858 17.57294059779959 -30.350614172185114 
C -2.08023164 0.90682919 -0.00336906 -33.41531767668632 -84.48444894654689 -61.83699588454452 
O -1.02569789 -1.06258326 1.59928724 -53.76591126407001 -7.034165936919506 6.979150955285904 
O -1.69259773 1.59144098 0.85577249 22.713060983044787 63.726628996104616 56.999119939285855 
O 1.08670681 -1.39558072 2.24604228 3.6102535209976403 -35.93753769791747 80.62909095851172 
O -1.20163038 0.16931141 -0.84056131 9.1845622824368 28.92216465294367 3.6726419378986828 
21
Properties=species:S:1:pos:R:3:forces:R:3 energy=-406271.39695181255
H -1.3130036 -2.41819745 1.53338081 -14.528937971307993 -20.050265434208388 29.025156768299606 
H 2.39343554 -2.12108872 0.19864211 -7.305209053529238 26.60565375194159 -16.25490050456024 
H 0.4553688 2.09408346 -1.95367477 17.888250414077003 4.66225584826474 -4.3365072493145576 
H 3.70526741 -0.79152317 -1.87620068 -23.72664152258265 -11.66192625094013 15.14272843157019 
H 2.526055 1.01264192 -2.86616892 36.505936114338816 24.026382694339922 -56.11306378091493 
H -3.00342893 1.68006774 1.6422773 -17.41288203039953 -20.15814194645505 44.09354726428267 
H -2.39613394 3.10437064 0.99624791 20.387560372688817 10.465251384351946 -7.484524168904211 
H -3.80631393 2.3225355 0.19945589 19.862688703602107 -9.42233956122769 6.899616751872809 
C 2.01486318 -1.17382563 -0.31832571 30.61730888301716 9.739614282979234 -34.604917934910794 
C 1.01842035 1.25988848 -1.49488807 -31.565789032920517 -23.908774148764223 15.282862833746131 
C 2.68737953 -0.52445027 -1.44561297 35.04969687887149 -61.647709199989116 37.29076110160792 
C 2.1521085 0.56551657 -2.01890513 -70.91715611040104 48.101557181461146 29.13191149383624 
C -2.80850334 2.13997664 0.71272637 -23.707128837261685 -10.337929778583966 -42.631575769876335 
C 0.83949218 -0.56019584 0.11214103 -3.4849501826508877 -1.287521802785361 40.554367113531 
C 0.35108373 0.68861239 -0.39322471 33.54969610350232 -25.279886848762924 13.293934996853245 
C 0.2115726 -1.2978056 1.31384097 -29.76659256347549 -24.717034517376295 -57.05265738789546 
C -1.96062153 1.07263702 -0.01560214 -31.655631578691267 27.031850880102855 -12.576739755510918 
O 0.63764655 -1.49262006 2.41651167 6.798715239021945 10.575478193912872 17.373971684399113 
O -2.41943656 0.22023645 -0.77296334 39.62634593414376 31.119233729032093 31.958844834472824 
O -0.8862941 -2.01055814 0.78774466 29.856076991290177 40.21828526998119 -9.380814479819634 
O -0.6235843 1.3463625 0.36599597 -16.071354379691183 -24.074032541453402 -39.612001056943654 
21
Properties=species:S:1:pos:R:3:forces:R:3 energy=-406280.3361700333
H 0.58719131 -3.52949157 0.69444178 -12.53928678357671 -39.4604768436156 0.2941678128384873 
H 2.84468914 -1.33433161 0.49300585 26.572907303741133 -19.48827638054364 1.6569275893852973 
H 0.24634312 2.80641338 -0.48509013 -31.10469437718036 31.772068533072968 -6.990083039514041 
H 4.01737322 0.80826316 -0.03555577 36.5949900891136 16.53402380578116 0.6471476063016249 
H 2.65941147 2.94790315 -0.55670661 -2.103804250777334 -5.0034485805251805 4.733323289405476 
H -3.27843557 -0.19337246 -1.19331644 1.7330086819108423 -15.327014508772299 -16.50141016953792 
H -4.48249886 0.53122597 -0.03606173 -7.714062363063677 -6.348642789909457 17.783524628351017 
H -3.55190825 1.60971693 -1.04725428 -6.413100464536729 -20.661728127756206 -7.023725968425687 
C 2.39012435 -0.43447327 0.15160683 -55.50695744103437 45.80492419866236 -12.913298299121443 
C 0.77533517 1.90973084 -0.34603895 16.46075429495698 -54.55707802229608 5.527933671950716 
C 2.9578194 0.82988423 -0.07123622 -23.56460737731904 -13.61494505490142 2.637169956020477 
C 2.16180904 1.98105611 -0.33786904 25.759060532178772 -11.007087409330591 3.372641071332221 
C -3.51032723 0.60345385 -0.51063374 7.400042720084912 54.88723076061315 -8.254803875216355 
C 0.97801716 -0.5258647 -0.03112607 -22.781373761894393 -17.245187961280738 -6.557472991133038 
C 0.15787087 0.61682291 -0.25072284 18.454746773539682 23.68932373424775 2.1653934242930024 
C 0.35854718 -1.91012559 -0.05778773 -51.879057717043025 -28.233993567536682 -34.816243103616316 
C -2.32545755 0.92135091 0.32677247 46.73670798823032 -25.81153429930962 2.291019305964416 
O -0.59868449 -2.40926781 -0.76731939 78.2756405460886 49.62573329050632 58.79402017907923 
O -2.17621981 1.42199866 1.40339326 -5.556720663676743 3.4782823109061423 -2.365335896772696 
O 1.03691085 -2.70269162 0.83368928 0.07154295538040163 29.11612347242248 -9.81555782026338 
O -1.16203791 0.46390273 -0.48722132 -38.895733127659724 1.851704625386223 5.334661442857862 
21
Properties=species:S:1:pos:R:3:forces:R:3 energy=-406281.5902325767
H 0.71313289 -3.49035044 -1.16761019 -10.781538317171714 19.74903842867979 3.6720276825965703 
H 2.77516711 -0.82629587 -0.93668493 -7.251928928086739 -12.520082411727847 9.37345171694161 
H 0.47090455 2.60540909 1.55036198 -17.43650477146783 13.831848325809906 13.218515592471677 
H 4.09557533 0.80701502 -0.08650365 -27.832431871617473 16.66860500799611 16.70936049154496 
H 2.87263206 2.79639297 1.30635182 -11.20711407510459 -11.890630812903874 -7.357132599694485 
H -3.46193191 0.00131886 1.4846565 3.307215766730965 -15.659606480982115 19.49354142599032 
H -3.792012 1.30619953 0.44372163 -19.78196275003723 20.866619031463152 0.00955060270890663 
H -4.10407541 -0.29251272 -0.19158998 -10.137102683603548 -14.533758333862215 -12.457931159036114 
C 2.22935135 -0.16718839 -0.23875265 21.808201260338738 -26.628757103391507 -24.81161916151219 
C 0.97311163 1.78563415 1.07434533 -37.84951167799454 14.095902213171277 -10.99064837216228 
C 2.99527889 0.88206608 0.2279039 25.06833637405856 2.0581370964536805 -19.009688492724784 
C 2.30901518 1.92011292 0.87888847 63.584547475770236 8.346608954819143 12.57953592153868 
C -3.4512562 0.27797259 0.44524026 12.53524194798693 17.21249487502738 3.8926319009913364 
C 0.86148184 -0.34212616 -0.01247418 -21.463473595538535 -54.53817484899304 -42.087014728132715 
C 0.19248921 0.74457108 0.53704526 5.037689163244286 -9.988648560965014 33.649002687045574 
C 0.13420927 -1.69966799 -0.48586478 -57.412230346377406 21.046879246212225 4.307071613476069 
C -2.1156071 0.49629286 -0.14495895 35.84383649046125 5.493297025002064 -22.334396305713398 
O -1.12082628 -1.91960534 -0.44641145 91.6191227037298 10.644413528811913 3.605188879307829 
O -1.88416202 0.70472688 -1.32184704 -0.002543586144847867 -5.157289888178183 29.497189437373134 
O 1.04574239 -2.57279425 -0.98821576 2.584370088101831 0.2032947885782884 7.765410786021348 
O -1.11238024 0.67887188 0.89247898 -40.232215109815 0.6998111047999179 -18.72404791903203 
21
Properties=species:S:1:pos:R:3:forces:R:3 energy=-406267.9969942867
H 0.48431553 -3.39795415 0.25760108 -12.42543254743439 -33.42409275243078 4.3508438257673365 
H 3.04562593 -1.01046307 0.32252154 4.997928583553494 -8.399278382422668 2.6565640592367883 
H 0.05813659 2.76543426 -0.56740446 -6.141267591109995 -2.6704761117549025 7.231777085221684 
H 3.96834541 1.22203937 -0.42394118 79.79679518310714 1.8950416413534072 -14.838625810003714 
H 2.35314208 2.91540335 -1.18130913 -3.777949961758524 -29.45362237212292 37.39321366838767 
H -3.9368871 0.99596189 0.77119915 26.641648163988542 -7.9568200902500745 -6.77142593927771 
H -3.32047503 2.16561167 -0.32704548 -0.45230416432209203 22.851281470051603 -5.40172792378754 
H -4.49449646 0.88644574 -0.81206498 21.272385648813422 -5.282577810851332 -17.787254035542414 
C 2.39351577 -0.14591624 0.18810854 2.8130141731922005 -29.565128682593073 17.686073854745608 
C 0.67256346 1.93085641 -0.20524026 51.05880158272407 -6.056295212377424 -26.071364292103183 
C 2.98121543 1.0685726 -0.23672047 -55.522441892260204 -89.2524800321638 37.13988553239234 
C 2.07611537 1.990067 -0.49375882 -75.48679340582507 139.60563745636 -58.769180785617166 
C -3.5335538 1.1053461 -0.2839088 -18.5341007321537 -6.459139966668999 19.04375001646586 
C 1.00070057 -0.38979416 0.44879481 13.982190275554544 48.54272885779824 -21.68149272405182 
C 0.1509565 0.71094164 0.2063653 -40.667302338362255 34.64898304500056 -2.404396842046024 
C 0.36091782 -1.66117017 0.69742484 -2.787434827397089 -37.351079074961696 24.614764567037707 
C -2.21223747 0.4076331 -0.64635825 -5.67293349788065 -1.6673948317631861 55.837910608557856 
O -0.69740196 -1.88256435 1.28226843 10.477287467974419 12.101604978579617 -14.743265638903374 
O -1.97344383 -0.41934255 -1.46587273 2.3609661462161626 -11.340115763685539 -29.900870195502524 
O 1.12191272 -2.687255 0.22575762 10.39326730354223 18.120021509267122 -8.306455868361944 
O -1.25518276 0.81141043 0.32553951 -2.3263259418043702 -8.886800246006223 0.7212768373845502 
21
Properties=species:S:1:pos:R:3:forces:R:3 energy=-406282.5241478486
H 0.42877326 -3.19718887 -1.43022918 4.768274178931465 2.693961297581808 -3.4351812733272213 
H 2.82096956 -1.07645277 -0.63596212 -15.794951351951047 1.8223152365685498 -6.510310516469686 
H 0.2736484 2.56101009 1.45770144 -3.724226339244616 27.155009068176398 11.671261034218567 
H 4.00768255 1.00861511 -0.01902735 33.509910621569546 -1.7893221375904136 -10.722541348463801 
H 2.79284639 2.88943357 0.94674373 -13.37074181185928 -14.842065876859756 8.45677054422251 
H -3.72108058 1.07263192 1.25585336 14.35215221222531 -32.6598548043508 -33.65712437539339 
H -3.86092687 1.01089583 -0.50353451 -45.475964396318126 6.416619981402887 -40.495240890329015 
H -3.66336252 -0.60566238 0.41749795 -13.455420106972307 -18.254345388314974 -4.01472522176508 
C 2.19892069 -0.24355392 -0.24677088 22.049286979849498 6.799892759321168 14.404920062975698 
C 0.89122151 1.80700756 1.00989238 -46.47754205522282 -35.812911463388296 18.142338661363173 
C 2.96069686 0.91648861 0.11098927 -71.9811613183013 -33.74206710859979 15.903603391162155 
C 2.25231905 1.90853145 0.80132794 24.223647582896508 35.36088952447528 -22.767465266839416 
C -3.45507958 0.44405965 0.27944834 18.054548771824003 51.182061751407616 73.01286476089358 
C 0.79181271 -0.41805772 0.04216969 45.93953504640348 14.437627379081619 -4.464992145529201 
C 0.12215864 0.61629727 0.77170626 74.14444279531041 -12.42372140766422 -45.59778734989326 
C 0.13678699 -1.63842855 -0.47371125 6.811324074209902 -13.554790724852076 -0.3448284595891589 
C -2.02847742 0.60059713 -0.1106437 -11.244063073094013 -25.799627470181218 49.75190702150123 
O -1.00676257 -2.00197959 -0.24609822 0.08742702829892712 -1.4136540300436515 -1.2905005852542923 
O -1.64481823 0.71373741 -1.22026175 22.741549147867087 15.67742937131175 -50.43754044986862 
O 0.9865231 -2.40222482 -1.25660354 -18.780424223227072 2.172687409550326 10.71081120667134 
O -1.1821805 0.46251035 0.98931858 -26.377607320658683 26.5738642613257 21.68376119971387 
21
Properties=species:S:1:pos:R:3:forces:R:3 energy=-406269.0383089328
H -0.67057839 -1.06553282 2.95276784 -9.588394825660151 23.927486404878767 -19.378309265791906 
H 2.54676278 -1.85600549 0.37630345 -20.524317556524185 37.34359772997902 -25.870500436670323 
H 0.31220059 1.79247783 -2.36567835 -5.576534547543534 7.044991297253452 2.2207096044724257 
H 3.31819399 -1.31824909 -1.95903211 7.001019867026364 3.9349336951848835 -0.9088405239593179 
H 2.41511915 0.9248319 -3.14473119 0.43707940790544786 -20.472975062671747 -2.1056991928097193 
H -3.76032634 1.06850887 1.25404099 -48.76340541127684 -36.187364104362345 12.441928504012933 
H -2.06528163 1.2318207 1.86538912 12.364621272525257 -10.323116502070475 27.11317567329624 
H -2.98365517 2.48784915 1.10446442 10.80433572679162 20.404395474086673 -12.677255876521654 
C 2.05454563 -0.98333714 -0.2389831 55.34488297785517 -41.52277972940581 -20.956204254066797 
C 0.77827928 1.00916763 -1.76343928 30.364878413554056 -20.014684873706678 -36.05976264482737 
C 2.51858571 -0.69446345 -1.53992124 2.938523844401052 16.405892284238387 -11.682979317800564 
C 1.9555043 0.38142927 -2.29137096 -15.72215498372444 6.672668390879005 33.25326692992806 
C -2.7896071 1.41607557 1.10677941 22.1125659483565 8.31331584311623 -59.58581067917578 
C 0.99304044 -0.3065197 0.29238454 -63.37634931716446 -8.26273346055463 -0.6943480272384661 
C 0.20864416 0.58644142 -0.57780555 87.69105846986757 -24.145034762436577 22.506346286568252 
C 0.44937864 -1.05300076 1.50184701 2.0168195337287695 14.473867256085205 -22.43823035401238 
C -2.14657663 0.84436538 -0.20706509 32.441491787734016 64.72874501776444 85.09141619250722 
O 0.88794855 -2.17506691 1.75028035 -26.36664203344124 24.93406704277885 25.633836643842137 
O -2.51456545 0.19277704 -1.10417946 -22.1641598362708 -31.80163935251076 -39.13730621962062 
O -0.5833134 -0.40021544 2.18457501 34.13113617979361 -55.75527311146594 21.514269425888514 
O -0.75312436 1.27612948 -0.04517523 -85.56645728957585 20.30164526622424 21.7202975319791 
21
Properties=species:S:1:pos:R:3:forces:R:3 energy=-406264.90171623946
H -0.85046232 -1.37076897 2.76793824 -15.255083789909673 -9.574098567122956 11.08675323887985 
H 2.52116805 -1.85001971 0.29649426 -13.700330099358188 13.32256546020113 -6.3288597373898785 
H -0.07117938 1.7433207 -2.02709246 15.405902439715025 10.492550170664554 -16.148036683487327 
H 3.21537301 -1.23830231 -2.093177 -24.609632333548245 19.152200466099057 22.49134209286627 
H 2.06128559 0.8073105 -3.19759287 0.6765713839296482 -23.052988444248562 0.16740472878343268 
H -2.50098035 2.68173897 0.92359899 -21.22604494813533 -33.350047714642166 -7.550918289300496 
H -3.89153436 2.01402256 -0.06051877 -15.704555027751558 -4.813879670560698 -9.123633611244061 
H -3.2912119 1.08250503 1.40609026 -13.393838048382918 -2.8336771049283187 14.680953114549313 
C 2.01426981 -0.9959972 -0.22881145 71.73721065514209 -47.00315960574782 -44.228672758357995 
C 0.70424214 1.08505128 -1.61600728 8.934868687949137 8.28389087966716 -45.73918109402064 
C 2.38068098 -0.66220012 -1.52760347 49.13640660728991 -12.419191571266403 -49.48209953042201 
C 1.72868765 0.3591834 -2.23215201 10.646396221601742 27.858795045124353 -19.916772815714165 
C -3.05269491 1.72010804 0.55860448 65.9164930235142 14.154728423648487 -6.861204450711943 
C 0.98725821 -0.32159211 0.28299607 -43.510528860178425 -43.847621023259904 111.60457708863905 
C 0.45769419 0.748983 -0.35801589 -104.60601898610531 24.07609231261126 76.40517386010386 
C 0.41075618 -1.18623218 1.52045386 -33.290097345812825 115.96152789279611 -78.0525544042434 
C -1.96112034 0.89771598 -0.21479409 19.236228931278575 37.26313147122333 0.1204983914661356 
O 0.91998108 -2.17334283 1.85926766 58.917262560447085 -95.39414013004021 42.83037985415134 
O -2.01049322 0.10412981 -1.12703788 -17.081318165037068 2.831329179256151 14.831451592672094 
O -0.77923106 -0.79463201 1.98987897 -5.536446681243894 21.887466282374266 5.5810513399098385 
O -0.70809489 1.38545498 0.26704416 7.306553774596025 -22.99547493766988 -16.36765192712927 
21
Properties=species:S:1:pos:R:3:forces:R:3 energy=-406267.87131508597
H 0.81907684 -3.73239297 0.12612876 -13.316764423641409 -42.23788911152726 26.815070934583208 
H 2.85761743 -1.31787898 0.71035546 -1.7874651418315177 13.261249025526165 -12.69452498842255 
H 0.21493482 2.78380686 -0.86211532 -2.787171575124755 3.50315490735751 -5.511628632560666 
H 3.98265759 1.13241834 0.67914869 -10.364840801414351 -7.9149783946225885 -6.60848701255558 
H 2.52710163 3.0356569 -0.15398741 8.093099388203685 -3.21341732194893 9.313102912240632 
H -3.2143959 0.34064098 -1.78917512 -8.082831363761617 4.072694083625635 -18.17268737940751 
H -4.3077986 0.08173371 -0.42407772 -4.972600631820251 -17.398092470306967 14.718066941664205 
H -3.98718326 1.76958832 -0.7704894 26.838645056988604 -34.51255314777404 -6.998969582436881 
C 2.34082485 -0.42153986 0.27489478 10.492998411020148 43.17893890675295 6.899971312365728 
C 0.8365935 1.93206713 -0.58971728 -31.626899134733378 -86.99827572641054 38.846406529586424 
C 2.96053478 0.92076503 0.2860965 -51.53809740570772 -37.773282357838184 3.5926452642774325 
C 2.10309117 2.01574417 -0.07350633 56.31773175026512 19.367858624908667 -15.179676243738568 
C -3.49937922 0.69854354 -0.80151205 14.87260195462944 32.31532635748643 9.586722817984517 
C 0.94959522 -0.56066563 -0.09598981 20.93620775375884 -20.190878908087136 31.747397526199517 
C 0.24954635 0.59152512 -0.4025706 -40.77607414549906 57.18633618029398 -63.48647651775748 
C 0.25230038 -1.90037523 0.30203742 13.871911289867567 23.846641869209236 -6.047064781351085 
C -2.15971356 0.70397707 0.01500603 -40.49668284872162 29.64430121058697 -50.62145773672525 
O -0.58466589 -1.94755396 1.1880184 14.588878853568957 -13.641469500070631 -21.114302659276913 
O -2.09565863 1.16750421 1.1166302 26.156738664170536 -11.678106779120297 14.497784080773053 
O 0.8307961 -2.94736837 -0.39144854 -0.7165940300717276 56.60593606906051 -9.027706617683469 
O -1.10834718 0.48203787 -0.94200475 14.297208379854503 -7.423497074564607 59.445815018062284 
21
Properties=species:S:1:pos:R:3:forces:R:3 energy=-406274.9287824435
H 0.40254077 -2.06465502 3.10344346 -21.670015162142278 -11.573134342616628 17.01304926156619 
H 2.84248523 -1.31182627 0.74414924 5.6292205766417105 -8.858327496857532 -4.747759474826165 
H 0.16349481 1.54985756 -2.25634247 -0.20400983866935754 -17.532721105363784 9.933076243439539 
H 3.85206032 -0.38003358 -1.53870696 -10.985931176039106 -15.189589707687722 11.055688284923404 
H 2.43551984 0.69968298 -3.0928798 -5.791100565169271 7.672614360023647 10.722974173145792 
H -4.05259718 1.41220183 0.31799595 3.4133313347235066 4.324568403017901 8.801520739622596 
H -2.68258066 0.88023138 1.45103549 -1.3252558143076005 -16.337574762104598 39.145738593082626 
H -2.69320026 2.58548405 0.82870515 -12.330843160014304 4.251616692234199 16.570734453740226 
C 2.21961567 -0.83191823 -0.01963908 15.438203019201973 9.935051821303087 -18.136726170349856 
C 0.68143163 0.73319391 -1.689836 48.518790688331556 33.62310791285208 -74.7261911850738 
C 2.76337799 -0.3405056 -1.27890585 51.08337890973485 -37.27957762331793 71.59582165429889 
C 2.03032856 0.4164074 -2.09527985 -69.69313858212152 21.85857256675405 -42.307630804737954 
C -3.0145901 1.537114 0.68792007 11.712654489490458 17.642972817166687 -59.85427582083031 
C 0.88202329 -0.58362128 0.35125197 59.92301312361458 -10.003044428470123 -32.519930292500106 
C 0.210139 0.26660233 -0.52360171 -52.26077232610615 34.478393200886096 34.62593186967669 
C 0.27710586 -1.20501131 1.48964139 -30.170216402194644 -10.847596850211826 63.949125784889674 
C -2.0713271 1.15183081 -0.43938178 -5.456892318873006 -21.950026643327057 -21.661847226773645 
O -0.90965215 -1.39062713 1.66354658 -48.39675191532594 3.228816394059417 -30.456650290167538 
O -2.28362623 0.93483359 -1.60989935 -17.744122166616282 4.776305744879743 -7.391657779464762 
O 1.0178549 -1.59043942 2.54980338 74.59672442903262 14.086119189537248 -25.073858742672343 
O -0.82761505 0.97531577 0.06524838 5.713734042629266 -6.306547328578011 33.46286910065294 
21
Properties=species:S:1:pos:R:3:forces:R:3 energy=-406269.3713351992
H 0.56567747 -3.80488933 -0.03614164 9.24156707178651 9.488483473383155 -12.009821243755667 
H 2.87557544 -1.12179985 -0.64543428 -5.204963451712597 6.470604484547035 -5.077475830998101 
H 0.03516004 2.65459642 0.95679722 7.940726127006309 -37.62156841314269 -14.294979036286989 
H 3.81732915 1.36849193 -0.35082265 -4.127037890546888 -21.546899663626405 -7.062467927837493 
H 2.487618 2.99861754 0.4905613 -13.448930108384541 6.141820183717686 6.1870106379806264 
H -3.52024515 0.93195981 0.959347 -19.059459773690545 14.520765292655177 13.00567731611076 
H -3.82784584 2.32147246 -0.39886943 23.000493332338877 -16.295320400752914 23.129613828634472 
H -4.23476077 0.70941297 -0.7117445 23.792222169741002 0.8331803979052977 16.263087413065616 
C 2.21823883 -0.27102875 -0.3669157 21.93316308222408 -4.773745557240243 37.008375606687956 
C 0.62825294 1.71510614 0.60012782 0.6285231009445245 112.09054908411476 36.031676473339864 
C 2.77690284 1.0245942 -0.14798657 19.09800251516653 -14.620865190478575 -16.83945691856186 
C 1.9959888 2.02371224 0.37036517 -22.939246861105662 -13.042014430440164 -2.1854231275902634 
C -3.45880447 1.28206181 -0.07541221 -59.75173076000893 -9.076689327653273 -15.931565051439783 
C 0.95190019 -0.59680582 0.16560492 -17.41052106069585 -0.5553247393831402 -30.473829279668898 