21
Properties=species:S:1:pos:R:3:forces:R:3 energy=-406277.4737088104
H -0.76153001 -0.91567962 2.94306521 22.07574620486115 23.742487649227687 -21.48153009261434 
H 2.25204218 -1.96566968 0.15751649 26.172834999056395 -44.85829748705476 14.204160559794934 
H 0.44158274 2.21049721 -1.82211643 4.724692883828692 1.1120487476012082 -6.635012643545838 
H 3.02672192 -1.29508855 -2.30781376 18.340073135054194 -4.258974711828036 -4.879323948298698 
H 2.18340588 0.99030674 -3.22071746 6.8909092679279995 -6.137814480222442 21.812087195908276 
H -4.04614666 1.1560148 0.62565984 -41.95811360873074 -16.021653062167168 -13.10579974453404 
H -2.74934059 1.66421881 1.59973703 2.6766400095548653 4.091190520309708 -19.034811297416972 
H -3.13305183 2.6176753 0.17181208 -7.6957841174521695 52.71146140216284 -18.907706696900515 
C 1.99208111 -1.11664409 -0.39290447 -39.3898789876093 51.85861653384262 -65.28908340853239 
C 0.89829485 1.26454167 -1.49128063 -1.8395997641430497 14.119660137838888 -13.967501510250939 
C 2.41312772 -0.66962823 -1.6726974 -9.802621698466575 41.265022551801614 5.2223748621390795 
C 1.95699309 0.62983558 -2.17518997 -13.095030117789284 -44.568173323985015 1.5131373009228437 
C -3.11208126 1.63587113 0.52393109 46.02065469255582 -41.98914891716102 39.73418568593798 
C 0.82824223 -0.50708503 0.11748894 16.247988353679908 -10.380360827271586 44.622793427210105 
C 0.27802077 0.67220352 -0.40126356 11.055770106575617 -21.29261575586755 13.319572447879638 
C 0.42482128 -1.13239384 1.43031897 -3.666794654318149 9.08277970454835 26.99075743755574 
C -2.10524216 0.81714102 -0.24484997 34.97700842036012 -44.03983787162133 12.027435429581109 
O 0.8539491 -2.21606145 1.83105682 -19.94039437096142 23.67624531392536 -7.7981868797479645 
O -2.19078509 -0.17495406 -0.95657492 -16.143882752361264 38.61032616071314 12.070203251445948 
O -0.36579459 -0.28483305 2.24132414 -5.2567387702470265 -56.47757924151889 2.9130275060791995 
O -0.8048409 1.19855325 0.23374886 -30.39347804555473 29.754615770905342 -23.330776510971063 
21
Properties=species:S:1:pos:R:3:forces:R:3 energy=-406282.2083393509
H -0.83154317 -1.12101144 2.85368231 15.012110243292804 17.405928375782565 -8.909067593618323 
H 2.56294748 -1.82164927 0.04281849 32.81423684640104 -58.21644587939969 42.40512426790103 
H 0.22410234 1.87038925 -2.03243306 -0.9449819778160421 -5.970000643177951 11.313113432634568 
H 3.46685888 -1.03990999 -2.05630482 -25.93261848637275 14.545104269635596 14.928667573710282 
H 2.37429874 1.09860677 -2.92930739 -14.641790188665981 -11.727691886181747 -1.9253927310398324 
H -2.68539592 1.75097435 1.47694343 -10.37086595815187 -6.59069732521525 -11.857759853493535 
H -3.01402992 2.60750934 0.05915756 -13.027052926295854 60.63382390444229 -26.042859525786234 
H -4.03259197 1.12465756 0.3786268 -1.843204660124559 10.141422629676127 -3.263877564942735 
C 2.04587985 -1.03487627 -0.35312168 -29.090189566134452 22.29175773834263 -44.58280042659419 
C 0.68555239 0.99592928 -1.52156996 23.77729268276495 14.047450751030327 -36.72677156783765 
C 2.52187393 -0.58313411 -1.59016212 32.01038061715585 -24.55293941513378 11.043435196049412 
C 1.868863 0.48575854 -2.14205816 -19.99804187531836 46.15888229448891 -7.562258295968645 
C -3.05081502 1.6326268 0.4144013 -29.80320597410874 -27.990619213406077 74.64096266899519 
C 0.86061224 -0.5780785 0.24956942 25.094621283376366 8.188731112323685 7.55865221416609 
C 0.19169637 0.49642495 -0.31778003 23.477419884871516 18.291632345302663 -33.50270913035385 
C 0.49447333 -1.11829556 1.54689564 2.6401688974471997 -28.759403599378526 14.250468057483724 
C -2.07531575 0.90520155 -0.32133781 40.95982897487231 -17.59207619202775 -21.361553462408686 
O 0.97045274 -2.13279943 2.02455656 9.562903230622483 -13.579958590744033 2.0674505349532777 
O -2.21365598 0.24578192 -1.32397577 2.14356008718394 -3.389019631627157 4.81537380507935 
O -0.47438673 -0.4599903 2.18620767 -36.20001681492902 -4.1186837812739485 22.767953825110595 
O -0.81989111 1.16374031 0.28141368 -25.640554320070844 -9.217196077637832 -10.056152609860872 
21
Properties=species:S:1:pos:R:3:forces:R:3 energy=-406276.28771390393
H 0.29162243 -3.69426263 -0.33916072 -9.397793065564123 3.2614928788181246 2.832395232376999 
H 2.79628116 -1.37689257 -0.20248205 -5.29002476702366 4.628151634965988 -6.647891845932408 
H 0.41674559 2.88537015 0.53805837 -44.73297636139232 67.53497155128619 16.72465521140335 
H 4.0579093 0.9109554 -0.03720308 15.665373128731485 -16.027307056917113 -0.6546360662105827 
H 2.74900652 2.86577002 0.75329596 23.315811449363615 24.45517914223522 -12.315446459545912 
H -3.36838431 -0.52582174 0.85404377 4.454177457584673 -9.464135009834362 -19.175520822800497 
H -3.82264555 1.09135021 0.83672728 3.092610617010692 0.928541754826685 -12.705085910663115 
H -4.04614758 0.28515234 -0.73493867 -18.777796443787917 -13.386196617558953 -13.457189351973758 
C 2.24561016 -0.4222372 -0.081415 26.41734892721273 -0.7893654960563542 -1.2988238631800209 
C 0.87977737 1.97808982 0.52970296 54.932110529761886 -58.76409835661166 -19.261466760612283 
C 2.9871315 0.77437901 0.05577467 -35.24130658685708 37.56070496210751 5.585066529973454 
C 2.28962907 1.99889192 0.31825441 -23.703751618921114 -56.91196446400659 21.46555115401209 
C -3.40632548 0.31564005 0.12847925 4.677095212841257 32.42263960473598 40.70933020789404 
C 0.85040503 -0.4656913 0.06275728 9.003359339955722 26.230896354958574 15.585381198394419 
C 0.18724723 0.78475366 0.4819743 1.724007114346488 -52.099186421198134 -45.49606287723609 
C 0.15289181 -1.76223064 -0.02577021 -14.523988354259696 -84.45628095340716 7.847879896524653 
C -2.06203538 0.79920317 -0.35508702 -27.65809483299591 -33.200771818018374 28.26077889333613 
O -0.9667356 -2.03789356 0.39476003 5.49935657054993 24.11237487917252 -5.951666663977255 
O -1.79696407 1.13747709 -1.45812416 14.062596057436853 20.58448255896295 -49.30436274285999 
O 0.88656382 -2.94492237 -0.52278389 8.35628999784317 70.69094058681401 7.205942787901565 
O -1.160496 0.68844695 0.64425614 8.125593256521224 12.68893028472493 40.05117462481729 
21
Properties=species:S:1:pos:R:3:forces:R:3 energy=-406275.45156847785
H 0.24122993 -3.48612163 -0.93014528 12.19599514806388 16.356598889154387 -1.4262996256840514 
H 2.65276285 -0.99851809 -1.11499679 -8.256970370268402 45.33191204140439 49.649737865951614 
H 0.300582 2.50233144 1.76127049 2.302771978356765 -11.307828228230099 -11.37318238356856 
H 3.81479254 1.20305256 -0.32370569 59.30967090370798 13.979969232734357 -24.55936419356398 
H 2.52382754 3.04217991 0.8599464 4.650083395221913 -18.955117008162595 4.68273260609655 
H -3.92135076 -0.37504281 -0.6399541 11.728197045947576 14.363035677790537 23.149450243101146 
H -3.73489095 -0.25704236 1.29795892 16.903135508761554 25.83915800058898 -52.9429253697019 
H -3.92638779 1.26028276 0.15912137 -14.374553557615668 5.364340172010893 3.7322484186245206 
C 2.22430339 -0.17146708 -0.32199362 -3.555427084910442 -57.356277380295985 -54.070273580445686 
C 0.84316204 1.74353663 1.1431994 -6.234467196263522 2.332314338089443 -5.117844736885774 
C 2.82225707 1.06352285 -0.07807404 -44.07923440425083 -23.529162000416637 26.8957411545589 
C 2.14387415 1.99439352 0.71545147 -0.7153382455834322 27.228860817134436 -2.2876729189710545 
C -3.50208277 0.2512682 0.22553853 33.7390563089626 -24.573917775268274 14.223966142914398 
C 0.87279376 -0.48100918 0.03885444 33.495861013810035 49.358930669959044 -1.7170475306242912 
C 0.15878284 0.59376137 0.68324833 42.93351308221181 0.5831346145668101 22.826398201210814 
C 0.24078765 -1.69272745 -0.41575208 -55.54161068947767 -35.81841604468637 -8.940851155128978 
C -1.94961218 0.58304267 -0.12782687 -74.80573606087631 -30.187753509652058 39.19195241090874 
O -0.99309874 -1.78546369 -0.4514501 3.1890985039263007 -0.39438392112444676 5.279831449307523 
O -1.57817038 0.89493743 -1.20996049 11.362971278536726 11.968927019144376 -28.15584914639014 
O 0.95066036 -2.79031054 -0.81087985 7.636381597946338 6.001022907576722 7.92017703409066 
O -1.14348661 0.5830659 1.00662255 -31.883396970386137 -16.585348512317896 -6.960923699979399 
21
Properties=species:S:1:pos:R:3:forces:R:3 energy=-406272.13124230655
H 0.71414411 -3.58134015 -0.43137494 -31.806620986727317 -61.50524347363566 -3.2084878638584255 
H 2.96236564 -1.25680258 0.06226107 -10.945361866394569 18.03553650298468 -2.4292978982025093 
H 0.06855783 2.7171512 -0.04010418 3.6866535993847074 -13.03297491660232 -6.462121120780023 
H 3.99417338 1.08204763 0.35988183 -12.758127686075257 -14.748562701518308 -0.010394907294049606 
H 2.54533442 2.93289943 -0.0285201 16.321763024269913 54.105777062579364 4.651807579023597 
H -3.32438305 1.98489578 -1.11684415 -3.9475828482884228 -19.081163856305533 18.858795136193503 
H -3.49303202 0.26438644 -1.40962921 14.071942698925753 -5.822378966914096 3.9149537963715764 
H -4.47229583 0.90596957 -0.14854683 6.761880079852989 7.886091793928652 15.863519082325656 
C 2.31702018 -0.32606402 -0.01094004 66.99697640067733 -81.53592863072342 11.305622601083519 
C 0.71826902 1.8069839 -0.07422659 11.21718881071607 114.70540544550232 11.04592423442612 
C 2.90058492 0.88395756 0.22134024 30.57783171455649 40.24484173231866 -14.635218368426004 
C 2.09304385 1.99936669 0.05316362 -14.198066625436718 -38.49110252687205 7.3896596710013265 
C -3.44973588 0.98256876 -0.56563328 9.113018141235353 17.458853940732148 -5.777841900047805 
C 0.99492645 -0.54595675 -0.26674208 -33.15928586870485 14.098714980693693 34.88967625774492 
C 0.20889212 0.59649645 -0.16717947 -98.65300878688231 -73.6268437667022 -28.537818706978264 
C 0.33810544 -1.85884141 -0.16201174 -6.497702867102776 28.070500862385813 -38.52750604718006 
C -2.19514888 0.78464214 0.37820978 -18.95644394191368 -5.349274315614487 10.91719387325484 
O -0.8496149 -2.06921924 -0.14467248 -26.236064163079437 -10.245644441457328 15.273547023604445 
O -2.04955205 0.89553292 1.59284264 -13.185593642756332 4.346472889389755 -39.309927375187826 
O 1.21812077 -2.80438586 -0.35621302 69.57497270065396 2.2607227640461325 5.304265291971667 
O -1.20265701 0.4149152 -0.47261002 42.0216309272681 22.22619962178416 -0.5163515448672568 
21
Properties=species:S:1:pos:R:3:forces:R:3 energy=-406277.37035594427
H 0.79459095 -3.62131566 0.70328427 -4.609512899756329 -2.6512551384113876 4.091126485973194 
H 2.94778976 -1.30836834 0.03418625 -13.352786109572431 -14.09030750947366 2.4387334762699004 
H 0.33834932 2.84251228 -0.52339264 -11.811617184930213 22.29918690719926 -4.542977666655505 
H 4.0082081 0.7287137 -0.47936317 -2.411850913144632 2.8922554788067982 23.281478372602876 
H 2.78453001 2.90927974 -0.01652041 -12.80363356873658 -20.835490043170193 -12.297102993776845 
H -3.94027385 1.05003228 -1.16933737 8.838497011496091 3.458783855437735 -7.952081549348063 
H -3.34607366 -0.69987411 -1.05474949 16.911666305370424 34.49403773795322 7.6798383818392235 
H -4.17281391 0.10405664 0.20180315 -21.87814217148525 -0.8993432831975059 30.290655502608452 
C 2.27928391 -0.44206916 -0.01142731 18.766438649804073 -12.000227951489085 4.515025492946249 
C 0.90514674 1.94082801 -0.42261713 -55.719120985219796 -28.099060176470903 9.080654713232933 
C 2.95266085 0.7363456 -0.11904613 27.26241362364654 22.009994799472093 -24.105632300701846 
C 2.22380727 1.92566834 -0.16774346 71.85186294884873 49.57903684351426 5.281074189764307 
C -3.41612091 0.32374459 -0.51993549 -30.02376987458792 -35.350997405304966 -23.629957975194362 
C 0.88755641 -0.46204337 0.00239383 -38.276050322617216 -45.56528755247049 -11.078293591533772 
C 0.18403963 0.71981848 -0.38805084 0.17112464940645727 -6.155344472753578 20.87083225364154 
C 0.26663768 -1.90345743 0.13623095 59.151506092519256 41.399768583142034 26.091303873000907 
C -2.24048628 0.88095282 0.1832972 13.86963925674238 0.20318569304200593 1.6079792682258423 
O -0.7211223 -2.32030544 -0.36974023 -49.61149276555831 -13.222622090755873 -25.034886733977505 
O -2.20245955 1.41069701 1.27119877 6.223958450149004 -5.965951064303986 -10.534650375280187 
O 1.09456063 -2.71173477 0.90236198 -2.5170225675841205 15.05023083247622 -12.632659518603035 
O -1.16861352 0.70290932 -0.67759045 19.967890003567756 -6.550592857420959 -3.420455747571174 
21
Properties=species:S:1:pos:R:3:forces:R:3 energy=-406280.02499040496
H 0.63341359 -3.23894911 -1.32729841 -6.029412649252155 -22.69361470370243 -13.588806001572337 
H 2.8985415 -1.40138686 -0.04662338 -21.191981052752162 48.92514072963672 -11.377855704313008 
H 0.06573902 2.74433618 0.93135458 -6.063944943948711 -6.313881631750917 -4.465211522422813 
H 3.87798124 1.06781443 0.10873995 42.52765159917781 -5.175009612076768 4.376737414139783 
H 2.55026603 2.95078456 0.669976 -3.045093581854422 -4.460395903152777 -3.046182165575154 
H -3.66617034 -0.37264166 1.20121487 7.179442059153285 7.6300279687789265 0.09259009313560201 
H -3.93388884 1.28970138 0.69988443 -33.28913920240722 56.28644979105716 12.716923962170814 
H -3.96050135 -0.06309358 -0.49487819 -8.32008925293412 8.459958031195633 -7.501813439762896 
C 2.29035477 -0.3879135 -0.00185324 21.937400020823404 -58.004328582235075 19.98863950024027 
C 0.64984737 1.87577005 0.59113005 45.788236139074286 -1.0273585942777164 15.472876426603072 
C 2.86507609 0.8295322 0.29590463 -28.02212529279184 27.704179396327948 -15.881004013657023 
C 2.05378658 1.97180496 0.50837685 -4.6127193598661975 7.771105098686876 0.6638653114158743 
C -3.5181398 0.39085367 0.40053223 45.73483624570608 -76.07419104705423 -0.08880258071292413 
C 0.88472087 -0.52330167 0.10250176 31.372552378459055 -8.175219867319305 -6.688274981672638 
C 0.16847995 0.57125768 0.51262112 -25.00070425648968 32.554939287257376 16.614761617556503 
C 0.23493429 -1.71110803 -0.42840486 -5.4489745917451975 -32.23790410135723 -32.71616707420933 
C -2.06961074 0.6531508 0.03958839 10.6197282920859 26.94907701359059 -31.679336141411778 
O -0.96276138 -1.95051524 -0.62601792 29.597783822572943 6.469570448594444 15.110504930451265 
O -1.74676987 1.21111998 -1.01177372 -13.581954327565375 -19.70313648178892 28.794563193408706 
O 1.21968731 -2.56125398 -0.97688041 -24.1902145443101 20.38120437187931 22.780518784919828 
O -1.08536621 0.35835135 0.98819053 -55.96127631531455 -9.266612798110673 -9.57852642291077 
21
Properties=species:S:1:pos:R:3:forces:R:3 energy=-406262.3053746855
H 0.34268014 -1.50311005 3.38225322 21.117651417912366 17.171167825734095 -26.42551686258136 
H 2.12620511 -2.3107129 -0.00872176 -10.098035809224987 52.410286572760285 -5.906244974610237 
H 0.48366107 2.14132799 -1.95111434 23.67146882674986 -16.217383498289518 15.27681988969292 
H 3.04778059 -1.28477687 -2.23283032 33.897985974726346 -26.858202803509343 -9.644150945447844 
H 2.43171401 0.91134716 -2.94761197 7.989874851922631 -2.58390998953577 6.366639995932934 
H -3.88805193 1.75170181 0.15202358 -49.204405143562184 -6.3280853962464825 -19.746777067944024 
H -3.01524376 0.17505164 0.91016808 -30.58144253964323 8.793068207202793 8.422808629449344 
H -2.76421138 1.9412104 1.39302102 6.17154634571258 -15.486869114952352 -5.698518772780995 
C 1.89054848 -1.1897617 -0.34411963 1.6797973340890433 -51.775714598657316 7.257409792963889 
C 1.0165649 1.29576471 -1.39835479 23.3883398220337 -8.193741206245356 -54.38448176897086 
C 2.58067456 -0.71318294 -1.47440001 -65.91395892393773 56.00853602730371 11.009271691698332 
C 2.10555863 0.54386835 -1.95211813 -9.6339090090688 18.310646985784075 -17.766200968681982 
C -3.06434737 1.23848298 0.56690436 44.74799952823104 15.108660978723881 32.38492812381363 
C 0.76261987 -0.49812677 0.21985934 55.85271321268193 -47.22885455389542 33.11245898139768 
C 0.34739435 0.69667268 -0.37916213 -31.3411636953569 2.717336202051384 45.24028127749545 
C 0.21612491 -1.20395906 1.50863137 -13.65635511166796 43.48036513021736 -10.0358857423543 
C -1.99713703 1.04303557 -0.44744533 18.7455705710269 11.652442054209834 56.45028519849048 
O -0.86049857 -1.76080151 1.47676862 -4.563631111823251 -11.192496459063777 5.346784091416734 
O -2.09941325 0.42373033 -1.4403372 -8.587357901152686 -25.313668518737018 -72.02731940253824 
O 0.91925954 -1.01701788 2.68785172 -24.308623519092215 -21.436404858508958 -9.976792722141619 
O -0.77752608 1.32917642 0.13551572 10.625932507801444 6.962821013653878 10.744205113163208 
21
Properties=species:S:1:pos:R:3:forces:R:3 energy=-406280.88970135496
H 0.59625934 -3.63754876 1.13024661 7.2176539565572835 40.913656660782834 2.150255232812756 
H 2.84777679 -1.10413804 0.64931135 6.47925504908161 -16.684555486893245 8.517688543025832 
H 0.1803013 2.50990211 -1.3577881 11.0631293119905 0.604593232225163 4.482309876093004 
H 3.97539042 1.05214269 0.28124484 5.063997788983025 0.48171726956069644 11.093967774127057 
H 2.72333943 2.83607739 -0.8722927 -0.45144800152648357 8.88841296262953 4.158114702713801 
H -3.71387301 0.93762218 -1.35469191 3.819163172231339 -12.315057510242644 -3.4567442432376705 
H -3.82145009 -0.47961055 -0.10246709 13.189231741727145 49.62376957085323 -12.732027764840712 
H -4.32313397 1.25938995 0.20415595 -3.076498866451229 13.611372176088166 25.34081433413462 
C 2.23402987 -0.28784952 0.3014891 -2.1006487809724668 6.306269846453119 5.884589510658158 
C 0.80710063 1.74618469 -0.85129175 48.91909541394141 66.08263722452516 -0.04530903636759541 
C 2.89089724 0.98044587 0.17526627 -7.450029820481143 -49.42997320885781 -13.07136231552121 
C 2.20827241 1.95241295 -0.48261514 -54.77932341701926 23.031170522813103 -37.21907703352299 
C -3.55744842 0.67848612 -0.28568872 -5.686807604125275 -55.599766911063575 -27.51927906382373 
C 0.87871918 -0.54541816 -0.02030591 9.473328680408256 -2.457934290655624 22.04180919232996 
C 0.18015882 0.6208867 -0.50581131 -56.91652868921476 -89.26829651328268 15.797417859727869 
C 0.26985699 -1.9992148 0.19772762 -10.590487130899048 43.8649411254658 -38.798316742864664 
C -2.1279964 0.92380359 0.11216433 -2.6925335690417627 7.987190153073243 54.83728042066936 
O -0.62514375 -2.44948672 -0.51636088 21.45448862946883 4.482856539595463 23.38383607369891 
O -1.78949696 1.36517259 1.19864779 -5.489655368568111 6.268024746059815 -3.5631052761868474 
O 0.89452721 -2.65511709 1.19000211 -5.933900693057855 -40.5381166219091 -2.7413692372017953 
O -1.22331 0.47205878 -0.76244994 28.488518196967984 -5.85291267304169 -38.54149399224515 
21
Properties=species:S:1:pos:R:3:forces:R:3 energy=-406267.75614295655
H 0.11284759 -2.19207913 2.64620377 -12.050134416054153 6.031479535336289 -32.39154144779023 
H 2.54682025 -1.56685782 0.57851796 29.519614499184424 -31.39897247137617 29.36280508145191 
H 0.24822477 1.38648171 -2.54276241 -28.278484387382157 38.40098724226059 -36.46549013008311 
H 3.85774358 -0.60379598 -1.409834 0.23034692411321353 -1.1806805123123316 -0.8554003126755352 
H 2.83773841 0.85138067 -2.80083455 8.987540487194757 20.536902675291213 -47.313807959491236 
H -3.49240279 2.02178928 -0.39129641 14.07445901118653 19.799715676925114 -4.9703902613894835 
H -4.05093745 0.66635212 0.3123448 -10.18799930874248 -19.968461569312193 10.733061952788786 
H -3.14465914 1.75438568 1.38092011 6.345664007440527 8.793192718412682 4.294845798486147 
C 2.21704706 -0.78459339 -0.03148216 0.11258185015937365 -3.627802486665521 -40.57103382834025 
C 0.84972399 0.91589284 -1.84172494 24.6394747060057 -32.38437315956384 39.3953610383075 
C 2.81337454 -0.33047871 -1.1928613 35.43335623445095 -6.077675565846704 12.236428088288065 
C 2.16405311 0.53232456 -2.06015021 -2.1803252829111486 -12.033044363131287 16.3699429333912 
C -3.18135064 1.30963201 0.38065948 -1.180635451112563 -3.882100624276934 6.0837410404998025 
C 0.94284011 -0.37417144 0.17407858 -63.93869411714318 -6.650623977623657 72.1453501004065 
C 0.28386623 0.49376721 -0.62342976 -10.310721114670898 54.40375729008251 -62.34310667885377 
C 0.18972377 -0.68821759 1.46403424 51.27540721254987 -51.42069044970994 -48.08768663267966 
C -2.00201751 0.47734425 -0.08455605 -69.34616260061706 -4.9603297556305606 -44.056261493116025 
O -0.11252117 0.13529306 2.24927413 -28.067903914293872 47.840782089293484 55.19074640076158 
O -2.26654392 -0.59034281 -0.62685486 31.337482906828413 -3.222026382746877 17.80783514562632 
O 0.10817206 -2.02869545 1.64203317 9.253431211357235 -14.307427785633665 38.60347804416932 
O -0.87152488 1.17334388 -0.2599467 14.33170272827757 -4.692608123772212 14.8311231202422 
21
Properties=species:S:1:pos:R:3:forces:R:3 energy=-406274.1200730281
H 0.60476025 -3.56425944 0.46051422 0.7484250244242456 5.2247785214004345 -4.7684710252251925 
H 2.62433666 -1.19505326 1.08548691 18.11875149492627 -18.201965301046805 2.7644571729781067 
H 0.67671247 2.61229806 -1.40586626 -11.625464625400841 -2.779345156217531 -6.014907686210766 
H 4.11446778 0.70286958 0.47854034 -13.71925698908216 14.982046122299645 -7.939687347769531 
H 2.86195142 2.73049324 -0.87239055 13.158993305040141 1.083374408874604 8.985700092930513 
H -3.57451129 -0.90145316 0.32351479 -3.693110394983168 -68.32803443736569 46.366366588824654 
H -4.39528846 0.49000364 -0.34744327 0.06978082530522965 7.9204782326364835 10.264657896117697 
H -3.25666838 -0.33794118 -1.34814541 3.2511477760080303 -22.91225638826516 -20.3905379693367 
C 2.28140994 -0.38123791 0.47757137 -28.07818854023059 39.72179148435944 -8.709243703243283 
C 1.05345556 1.72563544 -0.88355514 -38.90495762958083 4.8890239644594695 37.01411735219534 
C 3.03607548 0.76874451 0.17240197 8.243501814821697 -21.80880484325143 20.104756282939412 
C 2.37535515 1.84077407 -0.45204621 9.760902142406884 -10.477172443332904 -26.294665067557805 
C -3.476832 -0.11791543 -0.31997933 52.35775232875608 111.30044007826221 -27.901229651275113 
C 0.8915114 -0.40821492 0.16956514 -20.01186143379484 -17.954678923283637 18.07994075789376 
C 0.17976459 0.68980896 -0.37549492 48.11816816268121 2.5181811147465987 -48.95910264440988 
C 0.15007015 -1.71222636 0.33200752 -6.6349118487568814 -2.645187292116196 -17.279600488051592 
C -2.17169895 0.78709481 0.10253006 -39.24564164461229 27.068627934040528 3.696972614131778 
O -1.07128276 -1.90100687 0.33998813 36.19537669717388 -0.4423159936470088 11.39274843083662 
O -2.1253459 1.70560096 0.93369144 7.901613005606933 -62.67181271549405 -45.76248722086952 
O 1.08547205 -2.72535176 0.2596101 -20.302519216335547 -6.495135564536996 13.670426064206312 
O -1.10932168 0.49067177 -0.84758498 -15.708496696910288 20.007967197477978 41.67979073671624 
21
Properties=species:S:1:pos:R:3:forces:R:3 energy=-406274.67461828893
H 0.69074168 -3.66192726 0.55756835 -19.37068562228364 -5.787290522146709 10.41011782061369 
H 2.83797811 -1.13660034 0.52459094 9.969175007738585 8.504814083923447 -4.592900732715223 
H 0.11628777 3.02272737 -0.69724133 20.70522048628049 -55.30909845613346 7.35846071926662 
H 3.90131297 1.08597424 0.21741839 29.283234117586368 11.52485956781161 -2.1271269791208622 
H 2.77393767 3.1045502 -0.59936509 -41.213377673582315 -43.05768751892224 1.2183765775610818 
H -3.94209216 -0.07184544 0.70979137 13.43799328087222 7.245673722066193 -26.2557831812625 
H -3.23311694 1.47362111 0.86061371 -14.221583828431879 -1.3383271197037117 -24.82567351255589 
H -4.2559847 1.06163145 -0.66262943 -3.157352888689134 4.8453015566521564 -12.274681489428692 
C 2.30175619 -0.22292458 0.21478332 -7.299489838621732 -5.75899208869186 0.21231651510043414 
C 0.71819655 2.00379577 -0.51271567 -13.629141704470705 33.46576250400652 19.53460640883231 
C 2.85851659 1.04196822 -0.01217828 27.658946252507334 -59.57564344952267 14.052598400193396 
C 2.13666481 2.09702989 -0.44404506 -2.6220459943927903 79.45706101073397 -16.06586402824566 
C -3.48008237 0.7362499 0.02669764 -25.98265064796875 -7.305479420727851 75.21838399775972 
C 0.92137236 -0.36853967 0.17803372 -31.175362196628406 -16.866071486130615 17.413823572310488 
C 0.11661563 0.80448074 0.00240536 2.988505015692051 18.23854550869075 -19.545986733416044 
C 0.29123177 -1.70604305 0.59872125 -0.8151001844085631 -10.24230754103234 -6.879323796303214 
C -2.16769416 0.37335282 -0.5084277 21.268964555094126 21.97600086753067 26.88213030058661 
O -0.80823795 -1.81081786 1.10887352 3.4389296536553626 -1.304812259465094 -1.8437157489956217 
O -1.7634399 -0.12170563 -1.49762261 -8.886162274283178 -41.392616896410296 -73.52309035423437 
O 1.08997652 -2.81776053 0.32120515 15.059854956090014 48.81027380232065 -8.828546787094497 
O -1.22314186 0.87043806 0.35302161 24.562129528244533 13.87003413515088 24.461882588611363 
21
Properties=species:S:1:pos:R:3:forces:R:3 energy=-406267.6454698272
H -1.00099055 -3.2356739 0.87858509 -12.113013762868464 -8.39669329254119 11.360245075950708 
H 2.01408566 -2.29827985 -0.37862681 12.778196521467054 9.20303263105785 21.198344168487942 
H 0.93930015 2.46236853 -0.98938754 20.124714836973883 4.891256865490121 -6.018313364256455 
H 4.04817011 -0.68719528 -0.80295012 -22.91482487665198 2.8296891887487736 7.546918514910486 
H 3.51544801 1.73915014 -1.13401515 7.680204800542606 -3.778583190197381 -5.083702577313532 
H -3.81338568 1.98811413 -0.17174382 -8.436037649044644 -15.644444573080936 -0.36671278700322296 
H -2.89623254 2.24106075 1.40224475 4.538425299657802 -23.45843014663208 -26.705871046048596 
H -2.5851461 3.14003451 0.03044363 14.698081113745666 -12.147745275500842 -9.50312717748699 
C 1.96348182 -1.19721318 -0.18146006 74.5240193690266 -42.85468681396351 -46.10757063198369 
C 1.39369167 1.46801683 -0.84399195 13.35627123762824 -13.945573307458154 10.85881827477532 
C 2.9944874 -0.3108382 -0.60786041 34.01012195617222 -47.754022678243764 -3.1833484576715843 
C 2.74299544 1.00171506 -0.88707197 -33.63999637619703 51.84515627914324 -13.431468893474104 
C -2.81137772 2.06007449 0.26078066 -45.60096772194011 77.60225427748998 51.81526765966497 
C 0.76703613 -0.69041724 0.08535316 -123.90222556009728 1.7762828493625593 37.08269219749623 
C 0.47127101 0.59435966 -0.2810408 -8.172475877417591 64.84713857687295 26.811919022241483 
C -0.39391284 -1.45716933 0.8556159 82.2629685583942 -10.979719845397282 -29.881409686307606 
C -1.86947319 1.10234498 -0.23488821 45.173594259300664 -25.86273449463647 -17.138050215546073 
O -0.80939604 -1.17743461 1.93781282 -27.978451503647435 20.696229591105553 26.616488598843908 
O -2.06044349 0.24849105 -1.07827997 -5.337003439424796 -0.6931088442448223 3.1464136895347186 
O -0.48808952 -2.66160604 0.29383175 -4.115932676445955 -12.785009063379482 -24.144406277281906 
O -0.60314498 1.32390099 0.29724948 -16.935668509173624 -15.390289919816157 -14.873127273353063 
21
Properties=species:S:1:pos:R:3:forces:R:3 energy=-406278.396472267
H 0.96650804 -3.79447889 0.88875254 -15.718225172776178 -11.292457615824729 -9.320260528077604 
H 2.95179375 -1.2715058 -0.27942948 18.901966137214167 -22.933551362619088 2.0512593343836953 
H -0.06191644 2.58695873 0.36920061 -6.606462816029121 9.168407842319661 -6.326663596811669 
H 3.94451016 1.03122437 -0.34279596 -19.67169206509758 -0.765895725903054 -9.134378335746842 
H 2.36986247 3.01219189 -0.39137254 13.496795774928497 50.35611367606523 -1.0816573399992007 
H -4.23875221 1.58893955 -0.23557312 19.473165462947463 -25.10245481720987 9.17440098188892 
H -3.72318298 -0.17366114 -0.55022164 -6.482175726319261 0.7397815748159492 4.971227451048347 
H -3.67917044 0.44599906 1.2007078 -7.384802547994662 4.009036838204785 -33.2566358475213 
C 2.3113457 -0.43108126 -0.14982652 -41.28729227105581 65.4184410690373 1.8665368750364597 
C 0.59703657 1.77999458 0.06564082 19.87249662947811 -19.70348629899765 11.083121069014274 
C 2.82220759 0.90867003 -0.30982593 -3.330064166655874 -18.815754575487958 11.543277740306614 
C 1.96679837 2.0664309 -0.21685064 -32.33149502745612 -106.99338269463871 9.598345050061745 
C -3.54821567 0.72544022 0.08187816 -47.903208452468014 -5.259996220661896 47.920737259178104 
C 0.87980076 -0.67045999 0.09089505 89.88312575278165 10.407906264361877 2.767425283057619 
C 0.07228611 0.42471434 0.22038324 -11.175039987437529 71.27029243224231 -0.07078995901584295 
C 0.45163958 -2.05215898 0.17825007 -16.12026594039819 -6.16611647114043 -7.086528236871975 
C -2.15222213 1.07046605 -0.11858665 -16.298289696653473 0.9553033642052057 -22.715687576662894 
O -0.50139831 -2.39349921 -0.4671819 -37.66456391264847 -28.209467230830903 -18.351831736551777 
O -1.84857601 1.87215246 -0.94777916 23.292310847863103 40.99347783288919 -33.782878325737826 
O 1.1859735 -2.85676378 0.94325327 34.66982622153576 14.148920272162488 21.69762937685326 
O -1.29606833 0.2934366 0.54880785 42.38389214206257 -22.22511933881076 18.453351062167894 
21
Properties=species:S:1:pos:R:3:forces:R:3 energy=-406270.07714671426
H 1.14479084 -3.63468568 -0.99354283 -0.1982586065935943 -19.54174742317463 -7.633240357994028 
H 3.01838402 -1.16007827 -0.36418372 3.1721590502763464 13.311872911824397 3.994278109459434 
H -0.3039761 2.18600591 1.19825004 -4.90052168532681 9.651067839612365 3.999766089262863 
H 3.84162948 1.39477789 0.15123592 -34.16805790389896 -20.428350245048016 -8.704958145981056 
H 2.26389106 2.97268464 1.02533356 -25.008380076123995 -29.120254872948653 -16.213531951530328 
H -3.65100607 -0.10544105 0.93311038 -6.104968423054078 26.3758653495413 -10.43702410015989 
H -3.30813217 1.57266824 1.68496902 -23.304195146391617 -23.865619749238206 -57.68684397015829 
H -4.36220505 1.3935353 -0.02615661 9.779672503752709 -0.4500392461231832 14.285399973872966 
C 2.32098364 -0.34482884 -0.07570858 16.89866496341606 38.07353106100337 -18.584199299728308 
C 0.46925444 1.53453916 0.80719489 39.166859251742714 -12.940975362347901 -26.147035090546623 
C 2.73033223 1.06150868 0.12940997 47.318748089971166 -65.56888974267612 1.9854166207740556 
C 1.83139076 1.97059562 0.62721998 -36.39178542293485 22.27562701464642 36.30405245280592 
C -3.5334178 0.99162424 0.6127508 45.92621946187179 -18.603821080585554 53.37097949362206 
C 0.95558964 -0.72308413 -0.11005582 20.358737806331394 19.473375353272704 16.761270993678693 