21
Properties=species:S:1:pos:R:3:forces:R:3 energy=-406273.9457281954
H 0.14862732 -2.22999359 2.65226769 -10.326779503283264 -1.8924031895248357 39.08959589563376 
H 2.75176883 -1.42507043 0.61699857 20.10038297491974 -29.731699779180776 30.096075312901256 
H 0.33560156 1.65074636 -2.31391026 -30.009410767535254 41.28912910785691 -44.60081660575441 
H 3.89707013 -0.55789245 -1.47824408 0.8898495998988337 -2.714157015825586 9.641143703273794 
H 2.45134385 0.85336845 -3.10132385 35.483445315457175 12.115680674402153 -38.097619829742975 
H -3.30684623 2.08458082 -0.37020135 -25.580716604240923 6.1401315745474 -9.93778276717329 
H -4.0347602 0.59618612 0.60172846 -13.52430207992425 7.331742985266821 -3.9376338097078754 
H -2.89131785 1.88573322 1.2533448 2.1986497755434726 2.9728675935512077 22.181698129549265 
C 2.20204001 -0.83926384 -0.05632183 -40.76241585868491 60.54987488927289 -45.55453096975724 
C 0.84568157 0.88770938 -1.84125823 36.65619505661019 -17.512808798350132 12.151720147648875 
C 2.86952205 -0.27782953 -1.19156207 -19.506711154533292 -6.919000182699701 -26.32059541638269 
C 2.15993161 0.51841081 -2.15333216 -23.61172953406681 -30.09640022786801 65.0151729766321 
C -3.23289473 1.31141557 0.40089882 40.79427768438463 -4.82196459845607 -9.28968887567652 
C 0.84452069 -0.40009276 0.24843781 74.56362816362343 -4.36978020205968 -71.27278265644007 
C 0.26020362 0.504748 -0.68004273 -18.62631729165964 -17.668900794349483 71.39686697075096 
C 0.26083965 -0.72289599 1.49969423 -50.89445982970388 11.63671213802736 60.8628462664465 
C -2.09103394 0.51796218 -0.16684143 30.151843290899414 -14.02512055490276 -18.068542645994327 
O -0.15988404 0.14060091 2.28054858 14.19679423945377 -24.431755619102734 -8.196853986492547 
O -2.15596317 -0.56008543 -0.70764996 -16.496153424838568 -13.71521215349238 4.445241110177879 
O 0.11672728 -2.05894354 1.72040766 21.29496249571867 2.6498665419658787 -37.691385998900365 
O -0.85182439 1.17254508 -0.20054803 -26.991030176396446 23.21319879674258 -1.912126950992087 
21
Properties=species:S:1:pos:R:3:forces:R:3 energy=-406271.7027285673
H -0.29460266 -2.40603801 2.21744598 1.2480778373139978 -9.81357157001041 14.469593557033443 
H 2.01480813 -2.39553938 -0.18414181 -16.54128814551232 5.623517963228855 9.997573050161344 
H 0.43142785 1.88257992 -2.48667291 -6.883939011816383 17.110977921053355 -7.163218841415447 
H 3.41110647 -1.29261744 -1.88645518 -29.009388905843636 6.491340937188038 -1.550376825068672 
H 2.38757486 0.65808778 -3.163204 24.678928158045434 8.840330290834057 -31.05574368437881 
H -2.11367187 3.47234473 0.90766506 -10.488919186620022 -12.51957962360411 -2.1203642416923922 
H -3.17690592 1.96815123 0.66095415 -10.914047890018345 1.9547714474680868 -16.91289481597465 
H -2.49875512 2.33727079 2.17410327 -7.533102513897142 -1.326859044362535 68.13655872715835 
C 1.61039772 -1.46437216 -0.62097769 -20.670995319234986 28.031052153630263 -33.97279112380581 
C 0.71942491 0.98297614 -1.97555572 40.06474397505296 -13.7337607663025 -5.717943707344515 
C 2.35675022 -0.91413236 -1.66494597 13.108938612844259 25.66157418394197 -13.708795675809503 
C 1.84878142 0.25284236 -2.34873025 12.781674534596583 -23.78791645352098 17.580718398043903 
C -2.30946259 2.3903864 1.16154629 9.081596255143893 25.73883991169302 -61.039943896464436 
C 0.34228843 -0.76963156 -0.36934263 75.66939443132001 -42.573560660994964 51.1025856532258 
C 0.12416845 0.51522277 -0.84397421 -49.856572330353856 -39.5270547662741 14.72402094913893 
C -0.41283065 -1.40166768 0.74488206 17.404003788224017 -40.0701430182779 6.9267364792073876 
C -1.06421628 1.63124001 0.88549828 -3.209742462525674 -11.491976750190803 40.772361339802316 
O -1.55532358 -1.80975942 0.69526072 -20.36260832622733 17.309950391916974 -1.4932451528669821 
O -0.2671598 1.44468013 1.78241838 19.621238937030054 -4.320838995826504 -13.145591155572044 
O 0.40704784 -1.90405724 1.76203016 -13.76454349484987 24.37017830379753 -21.480888563428156 
O -1.00824446 1.08532903 -0.35161497 -24.423451314313755 38.03272814461266 -14.34835165577112 
21
Properties=species:S:1:pos:R:3:forces:R:3 energy=-406272.65896510985
H -1.12850641 -1.76437789 2.30946768 -10.413848413626134 -26.573365030665105 37.66423188275544 
H 2.58583555 -2.03482778 0.18434748 -29.423394607825337 47.67182867822326 -17.5859787002064 
H 0.14765445 1.72011499 -1.99965052 -45.10977574221747 61.26213474341947 -33.32844205517404 
H 3.32837316 -1.09228633 -1.97565455 9.405483115050997 -2.694065649833904 -17.42717591729463 
H 1.9032712 0.60359547 -3.16410662 8.273209003679845 18.546741584509917 -20.399003545788016 
H -3.62367759 1.22843773 1.21988276 -6.203384454991376 -3.786553093451238 -14.031552448259244 
H -2.31005538 2.35869913 1.2688182 1.1280098988877594 6.479461381943711 3.7587444040886147 
H -3.44172766 2.57785477 -0.10880828 -8.664921269986417 -13.617028542480206 17.35871846827735 
C 2.00674003 -1.10649256 -0.30127432 56.165179430089715 -25.012352576629933 -8.870004276702902 
C 0.61293795 0.99293707 -1.4662966 83.30361664914061 -66.99348178605314 -38.87456385033673 
C 2.45426019 -0.6026382 -1.57050439 0.13232577058441652 -51.2190783411967 66.31778790969794 
C 1.72455923 0.38168566 -2.12877677 -34.36369466015863 32.840432819140354 -12.262440258765167 
C -2.94768126 1.8123353 0.56242646 -27.67326029836023 38.14420718119875 0.22002198026091033 
C 0.92676119 -0.51585013 0.34584867 17.91516736601262 -34.36876048766949 10.205271978106516 
C 0.19302353 0.46274564 -0.30489053 -6.63731787966033 35.25690131944025 24.003268670500585 
C 0.56335338 -1.21067532 1.60139763 -9.228999740335182 18.637979841652452 -30.40824033176322 
C -2.03983482 1.0810371 -0.33198779 3.9613122843653685 12.950106184406328 35.29764850224177 
O 1.34599671 -1.76934724 2.31774557 4.3509529213036195 -17.414344147749926 28.24203817751647 
O -2.19070128 0.61066428 -1.40703299 -22.381034647474173 -25.890882328818403 -50.61231149899321 
O -0.77418043 -1.19180359 1.6486249 -14.325484282709468 15.434165298538478 -11.683968292553386 
O -0.8440181 1.15196521 0.28143774 29.789861929871922 -19.65404586210388 32.415946830749256 
21
Properties=species:S:1:pos:R:3:forces:R:3 energy=-406275.1786478243
H 0.56255574 -3.24072335 -1.15764102 -25.24145083118113 -28.109577223332746 -4.462741457182851 
H 2.70329189 -0.95465805 -1.05963153 8.365263105702407 -25.557173313182737 -13.089589570827716 
H 0.41165783 2.52744994 1.66988013 1.260558603828927 0.8252116804724877 -0.20424463123657427 
H 3.97073775 0.78123659 0.0601917 39.70219697738627 6.19313303204396 -4.823420786701233 
H 3.01165941 2.4068712 1.42588498 -17.078474566167444 5.362804533755613 6.041962193387784 
H -3.22318983 -0.51479162 1.36111823 7.827886953679834 -5.964556538753244 -0.8878538630774915 
H -4.16684624 0.88195208 0.83877364 3.408489627390447 6.1643970306229345 -10.033419234577478 
H -3.88741544 -0.53262417 -0.44163686 9.126388273535195 29.48211765187149 55.23585029008812 
C 2.22790754 -0.26036478 -0.41046485 -9.415650344704108 35.18979452059499 -4.498368264705372 
C 0.9292016 1.75618564 1.07638883 -35.707507388023686 22.525322980776178 38.967745668174565 
C 2.9164422 0.77316132 0.12917725 0.03195313392031265 19.404749517666815 39.25710497666929 
C 2.27615792 1.69640486 0.99588996 76.35087392856133 9.05369862920278 -28.926939954298124 
C -3.44203421 0.11839036 0.49247151 -4.230721339572956 -23.52886673097605 -83.76247484638697 
C 0.86298745 -0.23012455 -0.19737131 -49.16033884765137 -66.9530856062814 -0.22105720203454773 
C 0.16313126 0.71967689 0.57555086 5.144307519360565 6.018245772456802 -24.470654106892688 
C 0.20894662 -1.55148701 -0.47018705 -66.85892311443807 48.03150005985207 25.37968910550364 
C -2.13325074 0.60280627 -0.22393056 7.812225815118061 -14.184009902750924 23.137344196036928 
O -0.97321566 -1.80530063 -0.26731406 -14.857364154181283 2.465445281164466 -1.9543338795019103 
O -1.84104988 0.7395634 -1.3950683 -17.26785611640657 2.6667111299321093 35.01819435694887 
O 1.01739179 -2.47540044 -0.83208034 87.64524664537625 -26.296375021506925 -25.53614633438533 
O -1.17395437 0.73509376 0.8475357 -6.8571050673540235 -2.789486297807619 -20.1666466550009 
21
Properties=species:S:1:pos:R:3:forces:R:3 energy=-406278.3110933982
H 0.69821503 -3.53929489 0.40427956 21.071019005256822 23.10280122895095 -13.760652815996142 
H 2.8172401 -1.24181115 -0.17852222 -8.970703014154806 4.098614945882152 -4.202785767358352 
H 0.27079985 2.97205979 0.37852192 16.758560206766283 -23.94621051920378 -6.704149568022792 
H 4.04037803 0.9104431 0.04364009 -30.40519632913672 -4.934689932962075 -25.065086038569973 
H 2.70585556 2.98527506 0.17733246 1.857452299998847 -3.8382987664595025 -0.10568748659473708 
H -3.9118581 1.96009976 -0.46186201 16.254557802277787 -1.7960706451663244 5.9009087799007665 
H -4.3523665 0.27729386 -0.36831243 18.450463587919543 12.235507891155942 9.928452727179044 
H -3.60670568 1.02007921 1.16192486 6.629369321185311 4.59359206638536 -41.04886397651036 
C 2.22809868 -0.30275094 -0.16230282 -2.3258421268173772 -46.249037897015945 1.246123604229285 
C 0.85635672 2.00330219 0.19282852 -90.19609594413421 30.252167308900606 28.36884750859234 
C 2.90831637 0.87770902 -0.18855695 74.1077795801932 -10.324756492577853 33.52951698675319 
C 2.20434234 2.00198437 0.09272272 18.810091094169636 68.47676011302389 -9.302757809430538 
C -3.54179802 1.00699078 -0.0034097 -51.79920215612632 -30.962801402392383 21.811228661470576 
C 0.83125131 -0.37765705 0.06491941 7.722455604431151 -23.784379149339124 -2.6168556556720444 
C 0.10517667 0.80344689 0.283235 14.433241027030432 -8.367281373123634 -39.109013715271 
C 0.25700752 -1.74032988 0.32060905 71.28142847769047 2.7138332866798778 -4.391518673485018 
C -2.23866921 0.5006371 -0.5150252 49.980008000552296 26.999394958058804 24.636367854863742 
O -0.71824721 -2.02594145 0.94124356 -58.185172220939045 -3.720721052231017 16.432727414521793 
O -1.86725985 0.05146865 -1.5484434 -19.659779306863946 -20.89969750955664 -45.39155528258267 
O 1.19500746 -2.72830088 0.03902715 -34.01522454413552 -22.303388271167186 5.701648154522838 
O -1.23507949 0.78308796 0.43144997 -21.799212736805895 28.65466239797893 44.14310628328111 
21
Properties=species:S:1:pos:R:3:forces:R:3 energy=-406267.87131508597
H 0.81907684 -3.73239297 0.12612876 -13.316764423641409 -42.23788911152726 26.815070934583208 
H 2.85761743 -1.31787898 0.71035546 -1.7874651418315177 13.261249025526165 -12.69452498842255 
H 0.21493482 2.78380686 -0.86211532 -2.787171575124755 3.50315490735751 -5.511628632560666 
H 3.98265759 1.13241834 0.67914869 -10.364840801414351 -7.9149783946225885 -6.60848701255558 
H 2.52710163 3.0356569 -0.15398741 8.093099388203685 -3.21341732194893 9.313102912240632 
H -3.2143959 0.34064098 -1.78917512 -8.082831363761617 4.072694083625635 -18.17268737940751 
H -4.3077986 0.08173371 -0.42407772 -4.972600631820251 -17.398092470306967 14.718066941664205 
H -3.98718326 1.76958832 -0.7704894 26.838645056988604 -34.51255314777404 -6.998969582436881 
C 2.34082485 -0.42153986 0.27489478 10.492998411020148 43.17893890675295 6.899971312365728 
C 0.8365935 1.93206713 -0.58971728 -31.626899134733378 -86.99827572641054 38.846406529586424 
C 2.96053478 0.92076503 0.2860965 -51.53809740570772 -37.773282357838184 3.5926452642774325 
C 2.10309117 2.01574417 -0.07350633 56.31773175026512 19.367858624908667 -15.179676243738568 
C -3.49937922 0.69854354 -0.80151205 14.87260195462944 32.31532635748643 9.586722817984517 
C 0.94959522 -0.56066563 -0.09598981 20.93620775375884 -20.190878908087136 31.747397526199517 
C 0.24954635 0.59152512 -0.4025706 -40.77607414549906 57.18633618029398 -63.48647651775748 
C 0.25230038 -1.90037523 0.30203742 13.871911289867567 23.846641869209236 -6.047064781351085 
C -2.15971356 0.70397707 0.01500603 -40.49668284872162 29.64430121058697 -50.62145773672525 
O -0.58466589 -1.94755396 1.1880184 14.588878853568957 -13.641469500070631 -21.114302659276913 
O -2.09565863 1.16750421 1.1166302 26.156738664170536 -11.678106779120297 14.497784080773053 
O 0.8307961 -2.94736837 -0.39144854 -0.7165940300717276 56.60593606906051 -9.027706617683469 
O -1.10834718 0.48203787 -0.94200475 14.297208379854503 -7.423497074564607 59.445815018062284 
21
Properties=species:S:1:pos:R:3:forces:R:3 energy=-406271.7883691577
H 0.71233514 -2.22888334 2.94051917 7.399094063247671 -16.84430692664225 19.54442500709774 
H 2.32396612 -2.13346056 0.33064812 8.622947948222764 12.781272541261805 -16.636441983750558 
H 0.37817604 1.93969796 -2.06150325 -11.028436931452662 3.774711484480399 2.2963128111162114 
H 3.61833226 -0.79227803 -1.72901685 14.041942612269107 -16.226306801664798 -1.8847546437745937 
H 2.58046494 0.69286172 -2.94901702 -18.648833661691512 25.08779451161139 4.164474260986443 
H -3.94933357 2.11292437 -0.24010179 17.491567185943296 -15.46500494649608 1.7732708639043246 
H -3.81714348 0.673138 0.70886738 2.040348594934397 -7.94578721123298 5.669164958594718 
H -2.94089513 2.14918145 1.1612062 23.424068610166223 2.126198481241414 16.275252751182162 
C 2.01479585 -1.22754778 -0.24847728 9.795115451241921 44.157190279850965 10.771145781519758 
C 0.82766758 1.10837483 -1.51683645 -1.8267478356405507 -21.56886699851373 13.479332188375967 
C 2.6725307 -0.51098172 -1.28958236 -43.566182999356116 -11.124002249594053 -1.687693716438014 
C 1.99953479 0.55189679 -2.00823492 41.44648874655502 -41.74394602697664 20.33587636237497 
C -3.17737701 1.49167421 0.33877003 -77.22340461207533 15.747312177226982 -22.529997487341674 
C 0.90108524 -0.54440293 0.33712168 -58.596186096420304 -6.522800769552988 17.309832995633364 
C 0.2509155 0.54369094 -0.31133481 9.142619792020358 45.326764392241316 -33.01661618113139 
C 0.2707178 -1.10919957 1.63650469 31.598567498289228 -21.839819992723925 -6.198662515584019 
C -2.14882346 0.97466621 -0.56447827 47.19475508388085 30.332831599771065 -10.18606523461556 
O -0.83146361 -1.03484831 2.18302834 35.040628905328525 8.421805424843962 -26.931199575492812 
O -2.21123012 0.60919959 -1.72078948 1.7862390028693858 -4.248122077610018 33.803560230610685 
O 1.29737997 -1.93703523 2.2194836 -47.68599805390848 29.41173561529566 -9.927214730006446 
O -0.8963828 1.25145175 0.15652327 9.55140669557619 -53.63865013517542 -16.42399977161919 
21
Properties=species:S:1:pos:R:3:forces:R:3 energy=-406273.59356943675
H -0.75494541 -1.06290421 2.91729061 8.858999857390925 21.40685182638686 -26.13632594067524 
H 2.36347353 -1.93453441 0.1178184 -3.7791061372789096 30.164694033580865 3.973298563503887 
H 0.61788374 2.12261299 -1.99332963 -15.52708504992502 41.973306347979126 -26.235178354757668 
H 3.75072672 -0.97149038 -1.66741137 -36.70775574153519 11.417239192911001 -1.5220119856352172 
H 2.57481988 1.02722547 -3.02329302 7.09983196319321 -7.89713297369307 4.711377299296991 
H -2.69622124 1.58547743 1.45636443 -35.23775623864371 8.199487695036932 8.528998904167818 
H -2.89704901 2.90860845 0.31849777 14.164730824176129 -1.9297245353228762 -11.35415232741354 
H -4.09093206 1.58325823 0.04665265 18.824169161634266 -5.3184097654149065 23.15421131460304 
C 2.05024595 -0.92126216 -0.30641663 -10.84349865267495 -75.17011278041784 8.0073929862433 
C 1.02447112 1.25278198 -1.58657964 15.040126451338576 -89.8676614605136 30.522581940355668 
C 2.70863096 -0.52891473 -1.43764233 46.30338763304243 6.9858496583778615 -12.047318091068597 
C 2.15846172 0.55875991 -2.10828765 -18.553978650357006 54.205759564119155 -10.810403573086813 
C -3.03957224 1.81610597 0.40702744 -11.769667579587493 -6.2706762419199 11.656949360007767 
C 0.76088226 -0.48524838 0.07901139 15.48157442397951 -28.461167234529327 49.6850682182125 
C 0.25404577 0.64264865 -0.52290946 19.074729591306962 62.34339009008391 -49.331050831333634 
C 0.31273979 -1.23723808 1.32718476 -22.000681360972493 10.066687444038415 14.987128551305156 
C -2.04274616 0.805075 -0.08442651 -68.11015523573589 -22.778298927920687 -24.45733140743471 
O 0.66661388 -2.36512294 1.65332719 -8.782400561068037 25.74771578222644 -8.085071379718547 
O -2.34628549 -0.38102127 -0.23793734 30.7301931175434 33.98435999393594 2.592018633852073 
O -0.50616075 -0.44267941 2.14689094 9.13441628202033 -40.666013350884654 5.091907273134606 
O -0.88594668 1.4295177 -0.26943642 46.59992708797402 -28.13614554388068 7.067910846441154 
21
Properties=species:S:1:pos:R:3:forces:R:3 energy=-406286.1268555987
H -0.05217073 -2.67106979 2.58732748 -20.797582901775154 -6.143424599593666 11.30164179983025 
H 2.06639306 -2.37933008 -0.18898841 -9.08182393278483 15.892172076273424 6.458742716618404 
H 1.00893189 2.37479066 -1.3376727 7.619874968978374 0.016379746115983022 -2.2779029393685364 
H 3.64944107 -1.1248882 -1.56891745 2.6388965114642526 1.512423436652821 0.2050924932848569 
H 3.20756373 1.16862539 -2.1868733 -28.146896197488697 -2.829501829023419 18.87289217679488 
H -2.42375928 1.73599281 1.6921425 -20.952122658024575 12.937950332858152 -17.706166406558335 
H -3.834384 2.08427429 0.22742797 43.47886625241453 -15.604083967940593 29.028005110453414 
H -3.2223277 0.49365342 0.80581694 -15.086706687868073 -30.644238878984282 6.039300025138281 
C 1.83526342 -1.29208653 -0.36339833 34.73000189636394 -47.11812495621076 -8.021300295477229 
C 1.29229888 1.34552836 -1.0754379 0.16811622141136215 6.223613376224457 -3.109609361712973 
C 2.76584187 -0.61402612 -1.17176805 -26.4466185481047 -20.419768458134136 17.22064146561717 
C 2.42820735 0.67387284 -1.49209002 64.84320758010364 43.674721199746756 -59.90105764693772 
C -2.8966449 1.50865454 0.68629578 -31.954719363051883 36.73420429415742 10.329895840993595 
C 0.68798602 -0.71129342 0.13992369 -15.59072687967226 9.534868049439972 -3.5730863319356514 
C 0.44331189 0.66757384 -0.23980707 -10.56892890427278 -33.11702913571108 29.954854698646674 
C -0.21700293 -1.49199936 1.07044345 52.25174585629981 14.35908926534762 21.202428136172255 
C -1.84264643 1.32681116 -0.30248253 26.475450601030495 0.26534050319687813 6.958503439223392 
O -1.3574407 -1.22187845 1.30796386 -46.52692438688531 3.6099665523043756 -0.06373788125201532 
O -1.97145458 1.08772606 -1.46592893 5.769659734826615 -1.6376508824525946 -20.669649412347155 
O 0.49738666 -2.3796164 1.85665619 18.023923757475828 11.473558577695805 -35.19358914794394 
O -0.56908765 1.34735474 0.36254948 -30.846690548798474 1.2795352980368528 -7.055898479239611 
21
Properties=species:S:1:pos:R:3:forces:R:3 energy=-406269.68931667
H 0.96818712 -3.83065686 0.79705922 -17.59533482826367 -8.476854795287913 3.9173372966751403 
H 2.85107784 -1.33812377 -0.1928412 5.464770913906278 5.2264161402657185 -5.921929829592942 
H 0.15670545 2.59255966 0.84071144 4.990963070726065 -0.20909226767486708 -11.172786927449085 
H 4.02741498 1.03834286 -0.5878281 -37.567925426459944 -17.54077283026985 7.1310024552227995 
H 2.35142055 2.93591987 -0.34339997 18.874222668009107 38.2682926813307 2.2299068325094606 
H -4.02753736 0.51457079 0.76478257 10.456489352638995 8.924190369424963 -1.6993918410622213 
H -4.1817521 0.76630725 -0.98369021 -62.7317452970077 39.41065457234484 -64.90694901881879 
H -3.46386396 -0.6800585 -0.43897793 -1.452430378265808 22.371900267952604 8.773087122568441 
C 2.27511814 -0.39251545 -0.2032467 20.3446810836456 -56.151684786579985 2.604591894408633 
C 0.78144528 1.76658327 0.44550433 -33.50607449048396 -8.627857247355477 -25.398710860911333 
C 2.91975391 0.82457289 -0.32259955 -7.117793594585289 45.862715187365936 -12.238323030320451 
C 2.0527912 1.95118327 -0.10475684 10.500119266404678 -42.276007329068584 18.180851757312997 
C -3.57201205 0.44955959 -0.24626905 65.45847083010565 -72.22355618424746 36.17964915263349 
C 0.8897056 -0.64968269 -0.01532026 21.048870239749377 12.89252034274381 22.866027154765437 
C 0.1286347 0.51362566 0.26067342 -34.49879169452883 11.524443344624274 9.293123013427326 
C 0.36703844 -2.01046855 0.36744946 -62.63802274477263 14.617791542325918 -13.658655604498266 
C -2.18415315 1.01216997 -0.48558893 35.318963635553494 59.81375631566973 15.001781741977362 
O -0.8691709 -2.11894622 0.53875303 60.85505305052858 -28.075716103348537 0.3452826290499872 
O -1.81357583 1.96414808 -1.1920483 -29.21726452112475 -50.73818758890545 16.69560733904708 
O 1.3149969 -2.9910372 0.47143824 4.366999451705521 29.85581611065994 -6.1255993376219395 
O -1.29530855 0.41903797 0.4192591 28.64578059834028 -4.448766556149269 -2.0959007535020837 
21
Properties=species:S:1:pos:R:3:forces:R:3 energy=-406278.320219544
H 1.10176258 -3.70217881 -0.73796008 -8.51045977792607 -18.870358077218405 -3.5507324193871534 
H 2.78103105 -1.43101859 0.39135551 20.425259995400708 1.35572904356182 0.36840969692083475 
H -0.05677311 2.68062328 -0.43185183 21.151478149086227 -12.854601343138308 14.003570629023825 
H 3.8788851 0.93237825 0.77688854 -9.130685689007889 9.996099074600485 -7.958503956136173 
H 2.37283718 3.07535314 0.07974637 1.865384256979214 -31.40410351904459 6.651425592651124 
H -3.53868584 -0.4886172 -0.17029291 -4.376360323046979 -12.079571237713687 -5.23181044020647 
H -4.50577923 0.9080801 0.35394267 -6.843895020895466 15.376629261359913 9.184698651857154 
H -3.40994338 0.95367061 -1.18895575 -19.156796708475483 -3.417376170313286 6.819395958073761 
C 2.29841457 -0.47266595 0.22458814 -35.092150458159 63.61027386337512 -7.205838435649468 
C 0.64530164 1.84522545 -0.122358 9.189066030771594 32.4267212007782 0.3332168999013499 
C 2.82907853 0.88935648 0.40551615 -2.884948449517963 -63.617630697147916 1.6398399081045243 
C 2.00626631 1.99022561 0.13114926 19.725808194377894 44.06339064924788 -0.5224300635518675 
C -3.5908558 0.60508592 -0.13795118 64.29180909420562 -2.4334150688761276 -11.907845377036628 
C 0.91637696 -0.60965117 -0.17360991 -4.916867042632442 17.416124065140796 27.96344138084022 
C 0.10085117 0.5943942 -0.10083515 -1.1336140891537505 -35.6372285178789 -35.11642065751871 
C 0.40792884 -1.9867023 -0.4927904 -49.69948068721226 -32.7188743036586 -6.078019453950203 
C -2.21006721 0.98637441 0.48802681 -16.03701537382521 30.006255297730394 23.237170169198567 
O -0.74741078 -2.42646667 -0.78029796 67.9198677182172 41.53572415194994 16.783898830888944 
O -1.96135409 1.60740225 1.51351815 -9.016750817034401 -23.756309579346265 -23.937960762182936 
O 1.46414814 -2.8684695 -0.42017062 -4.124065037183189 18.994710387085824 -1.762707570021665 
O -1.22331967 0.6194603 -0.42110706 -33.64558515078942 -37.992186108852195 -3.712797395997976 
21
Properties=species:S:1:pos:R:3:forces:R:3 energy=-406280.1439226584
H -0.93519069 -1.47609521 2.61354918 -8.129071269650751 -5.583400451403053 12.753932251212566 
H 2.45289722 -1.89806248 0.06348227 29.866078205996775 -62.55322112427077 27.331195987630576 
H 0.44177627 2.07061387 -1.91627119 -9.439252926814621 24.020676523463926 -5.889528455317033 
H 3.26755321 -1.17366287 -2.0844769 -4.607293042757188 22.981302004521524 17.806655253685005 
H 2.40815519 1.04898833 -3.03403465 5.610402782454022 0.4061425226220278 -15.390445262373257 
H -2.80477999 0.98027054 1.69884163 -20.251614290449286 7.586322162466265 -30.460272973464747 
H -2.85632994 2.51362564 0.80978177 -15.2846095481477 -0.12794890510160373 0.8751750644477883 
H -4.11511424 1.23906296 0.30585253 -12.745968277063945 -1.4065604485431948 -0.701767709526724 
C 1.95756248 -1.12505029 -0.39233992 5.2762028369050835 50.49299181364735 -29.30719244601085 
C 0.94752362 1.23360633 -1.48300733 -39.2894375733245 -34.26209707035344 41.40485931289487 
C 2.53624559 -0.51562957 -1.50507303 16.892983694782043 -50.60114817966099 -43.838991803504165 
C 1.97990311 0.58803384 -2.15447093 1.6864675774758824 6.781992790623508 35.08758148966664 
C -3.11516749 1.43573759 0.67755836 54.08503586665418 -2.983059725446298 20.643740408301106 
C 0.85295321 -0.6009238 0.24865297 6.8137550073553275 40.94121039862044 -36.89238570684079 
C 0.34143844 0.60604457 -0.31849672 -16.414719536108898 19.085166002337637 16.401805944911978 
C 0.39300309 -1.27740918 1.42106101 -43.5734580114767 -23.943792630089863 69.92243486878749 
C -2.01626773 1.0132974 -0.2940837 12.254690918225968 -0.14069766717305335 12.615842204520876 
O 0.90998128 -2.15949213 2.11613366 20.349267839453656 9.351238917097652 -30.916748856228597 
O -2.04623376 0.63572153 -1.44454477 -9.531054448954267 3.6408014569777927 13.226598148724953 
O -0.84669039 -0.87388933 1.85590878 1.6569050587854128 5.2641003473040024 -13.689303149446328 
O -0.79259419 1.17055337 0.42251546 24.774687950838466 -8.95001873763985 -60.98318220042927 
21
Properties=species:S:1:pos:R:3:forces:R:3 energy=-406281.8897451918
H -0.40464567 -2.66530356 2.17205177 30.091364045883314 -12.840709449577984 -15.357225671575229 
H 1.83822848 -2.46896293 -0.42080896 7.6013026397473205 -9.487046258274736 -0.2860283371749741 
H 0.27835763 1.83251702 -2.4175579 19.95217194559575 -18.533159190242742 25.803303515425522 
H 3.27080777 -1.32923421 -2.2879555 -4.204430501149916 1.1343172810343543 13.106978450654312 
H 2.51006946 0.90529853 -3.05786643 7.88021960810614 -0.1297857419027083 -21.76076248937154 
H -2.72532294 2.48542787 1.93056905 -21.135562058999447 18.677621839238586 14.996036439006831 
H -2.88775033 2.20543921 0.13481432 -35.11076073366353 17.70887363600761 -35.18315629437641 
H -2.99288742 0.84564665 1.30105984 -20.505310030969053 -35.08791589120177 2.4325553486173797 
C 1.59372447 -1.48659762 -0.81963395 39.28488994961098 -4.6457930946755 -15.937417078304504 
C 0.78526029 0.96807627 -1.85208731 -26.25922087647645 0.34010652018180026 -4.06507399758051 
C 2.39996528 -0.83995272 -1.79804405 -11.909145036903647 -34.49160087570256 1.2315534210303358 
C 1.91601529 0.32754054 -2.36408417 0.01044115431486502 27.532020710968904 13.210678501175032 
C -2.6534035 1.824518 1.08644865 60.87826194005165 16.68915410091176 29.991948366803776 
C 0.48491356 -0.88211398 -0.25739559 -17.617619963191466 -1.100903215584693 5.89387330363159 
C 0.12531125 0.37702628 -0.738134 -26.24855441616274 61.74898543229069 -25.588270284307445 
C -0.33908243 -1.54578365 0.77109247 38.953186157365025 -8.267268040236635 40.524623164220415 
C -1.1612633 1.71849277 0.91557452 8.427841253970897 -4.283369422397644 -0.7539936400588404 
O -1.37841152 -1.10912124 1.22991013 -10.630426769567865 -7.200829527548845 -4.2411862103087525 
O -0.24974369 2.14081395 1.58328518 -1.9176635494584249 -5.3752615838496105 4.322765955027147 
O 0.32603272 -2.61013112 1.46016603 -57.23262707648812 32.71324165368749 -5.552137465331832 
O -0.99334938 1.11844677 -0.31097392 19.691639946742626 -35.100677697304725 -22.789066183023355 
21
Properties=species:S:1:pos:R:3:forces:R:3 energy=-406278.3529677085
H -0.67148516 -1.11117499 2.81757525 -11.428738099599386 -8.136345095950285 13.873630730385063 
H 2.60801843 -1.78750826 0.19148191 14.22067667533127 -45.031701284512685 26.36695509019753 
H 0.65669923 2.30954673 -1.76479515 -9.530633482482742 19.659411702339515 -16.505377926759675 
H 3.6539608 -0.92243193 -1.77869721 24.010112043760216 -0.8016968491194184 -2.9447411041481093 
H 2.91396251 1.26086463 -2.75986707 -1.5159263520243274 11.331673903655156 -19.50606843952606 
H -2.73971949 2.85241157 0.15707427 -10.805086351514085 -4.311096290108056 -0.8828224243769835 
H -3.95488066 1.56343037 -0.56169647 15.119566974888995 19.13509855496573 5.2625718239750015 
H -3.75866977 1.65387662 1.09869441 0.6649289928946289 -4.9292493860005075 29.196224498295827 
C 2.16071555 -0.94739622 -0.23421983 -27.853320109352435 39.76731634015751 -63.00672771113406 
C 1.02577839 1.33816463 -1.50635375 62.37026079499871 -27.67580269868403 4.719475271223876 
C 2.82992609 -0.37901715 -1.3483948 -50.43550320931064 41.5044327061736 -7.406082106674987 
C 2.26916369 0.79318645 -2.03227955 -18.790164557303427 -37.7832254673135 68.49184257091493 
C -3.16216486 1.82585963 0.21704414 -18.979230679144173 6.074100315391358 -43.040041315928555 
C 0.84445726 -0.54314006 0.10265229 5.178029898282327 10.173655617363423 26.976538257386572 
C 0.38339923 0.73562806 -0.41181221 -36.297146231030815 -21.83287938213847 -6.22336198216259 
C 0.18829349 -1.38449056 1.20814486 -5.265209089982526 -18.32434914797695 1.9284474060557426 
C -2.11923419 0.82053224 -0.05167001 63.81845542048623 19.647170471675988 20.85298801853307 
O 0.23033475 -2.62320012 1.38851271 5.731128851561095 68.37868559754799 -13.745602375273341 
O -2.21034206 -0.34941546 -0.21307182 -17.68569794947385 -42.042758700854456 -11.428811620504273 
O -0.44363822 -0.53078252 2.07720302 12.56616578923884 -9.392656088790474 -10.640527593242371 
O -0.813106 1.44105232 -0.04334804 4.907331855597141 -15.40978718946352 -2.338509067236615 
21
Properties=species:S:1:pos:R:3:forces:R:3 energy=-406276.8653372564
H 0.53199984 -3.75927282 0.55986234 31.696036059210336 26.01628290449098 -13.067864143433889 
H 2.8543902 -1.16678426 -0.27863764 7.954180452600455 -15.26725268548936 3.905373548136507 
H 0.01472266 2.75967084 0.15527993 19.36918555865976 -4.962952791785528 -4.759277354651296 
H 3.93753814 1.00022282 -0.41290815 15.853523796724293 -5.380049929235575 2.152681422673995 
H 2.55533872 3.10421865 -0.27279374 -13.263734506439732 -38.690281330597756 14.513638508165416 
H -3.5940964 0.18847975 1.28514532 7.582984076220231 -11.037115955692352 -0.1123802605814603 
H -3.83375651 1.54516109 0.22719932 -32.91678309304346 29.360464270706018 2.1802173731959127 
H -4.13296414 -0.03919724 -0.47787283 -16.248447266424918 -14.289466154241586 -12.884373752154017 
C 2.25485529 -0.28400308 -0.08129047 32.3380336447068 -72.17012783117416 -4.603333586282762 
C 0.74851944 1.91235219 0.07195077 -35.43218227161486 28.0342704719506 12.188948999405284 
C 2.89794131 0.88959684 -0.13487625 7.3377527263307325 67.0666386438779 -13.07041721614711 
C 2.11192774 2.04464701 -0.05356849 27.82932264883342 53.80843836426241 -21.502577230369535 
C -3.55517608 0.51182838 0.23758155 58.32587107393315 24.69395251070521 -10.773857754253216 
C 0.92578068 -0.50518828 0.14056424 -46.947353681476166 -25.70202372566081 21.96443081157949 