21
Properties=species:S:1:pos:R:3:forces:R:3 energy=-406273.7455991767
H -0.17805377 -3.73259075 1.04503223 -28.71910109946946 -25.735410517226402 23.242678307959793 
H 2.36724216 -2.09260339 0.43638118 0.2645222866747593 -22.660303804683817 1.2914658435861837 
H 0.92702049 2.29867516 -0.92455831 -0.32438016146246584 18.874852338984827 -3.7851241790901464 
H 3.91471788 -0.8669561 -0.96616177 11.693779775892533 1.2858059197310046 -1.2349875587811419 
H 3.13064453 1.48769529 -1.68450791 -10.379496363728654 -13.141436038624937 -4.640300371587885 
H -2.61561127 3.47421207 0.5497128 33.20424864532686 62.33818314986851 11.57778631858224 
H -3.75521981 2.57036915 -0.16302439 2.5785239903423443 -24.490998052767285 4.63879675050086 
H -2.76727165 1.96117279 1.41993539 -23.678975073974517 14.320425570124888 -15.974749096491964 
C 2.01027426 -1.18453722 -0.02036833 -24.489553722732587 -16.803769634165967 20.579749947166174 
C 1.2136484 1.2942652 -0.6641745 61.534185807918774 -2.9227868132922987 -57.097107889825345 
C 2.94557393 -0.43489822 -0.73742429 -25.73733036150076 -39.359808937510905 10.690875183236754 
C 2.45401497 0.73079857 -1.20488069 -18.480756572374688 105.30249319048023 10.257449289975725 
C -2.79762803 2.46456104 0.39834972 -0.03249742578067869 -66.8465965046592 16.086113108436532 
C 0.64294004 -0.82327361 0.28778019 50.04772312559443 20.796489574770234 -9.27266167126912 
C 0.33980296 0.52487124 0.00695205 -53.32024651178755 -15.192382316252342 47.43245172684057 
C -0.29373411 -1.78542127 0.8618124 -15.504626785124422 -38.46949093829869 -6.9182127975247925 
C -1.71559253 1.65633549 -0.30908013 -23.047970049579565 15.332208404956184 33.023189187192415 
O -1.38165053 -1.61878234 1.39406405 21.029438190259576 0.7878512025799109 -2.238105599225301 
O -1.67663124 1.39267312 -1.46346293 3.2229216776370215 -6.118265034449034 -54.94904642594871 
O 0.21389603 -3.04989846 0.52461353 16.41586266759777 38.75693870326638 -8.522110469708412 
O -0.8227323 1.12130202 0.59960669 23.72372796027128 -6.053997091189212 -14.188147232382333 
21
Properties=species:S:1:pos:R:3:forces:R:3 energy=-406273.431140994
H 1.30455273 -3.94876553 -0.09060151 -15.599397603164629 -4.482389326103124 -0.7442485626982998 
H 2.98719376 -1.29715383 0.4869419 20.26991150919754 -34.31790418044614 4.37472507582379 
H -0.09746056 2.46251562 0.02208107 2.944766006390087 12.738380208187074 -3.5216240701575123 
H 3.84061495 0.92072714 0.51882148 37.82411257699851 7.380136342176491 4.360655309106484 
H 2.47048079 2.77154211 0.05692324 7.7283645507061065 46.868189454229594 -1.0317615478235533 
H -3.21028022 2.02638048 1.31748068 -14.22419500637638 2.2919098575703742 -4.512276759760347 
H -4.208855 1.64434089 -0.13256137 -61.48793167217709 21.038380466771603 -28.79100335862697 
H -3.7290591 0.3839364 1.15163827 -16.271024113330167 -24.217495543307006 3.561417852837608 
C 2.33286136 -0.48551169 0.33693312 -37.294779849134684 -30.237488030165377 -12.112034274684014 
C 0.62216538 1.64439136 0.03417381 -24.61777418085385 10.882614145716422 -12.147372927692226 
C 2.81290957 0.75862118 0.33075183 8.516374653306254 45.22055870184924 -3.8486663998694812 
C 1.98036546 1.84314348 0.09229932 0.8551643342872718 -24.18396763903688 9.161394896650371 
C -3.55268821 1.26710686 0.56765164 87.84042448889089 -8.844972780231297 32.37393556271211 
C 0.98157851 -0.73136355 0.08598819 -60.02557241428852 -11.321939498684033 -15.601079097408636 
C 0.02886899 0.37039044 -0.01066787 63.22483340458374 9.909821106895661 19.943871198269907 
C 0.4679594 -2.14121672 -0.07064714 92.46338104185195 15.898320558399778 25.329745880486133 
C -2.29460137 1.21733071 -0.27707216 24.351360509609847 -0.17827752195924157 22.41222055517737 
O -0.64943934 -2.48795753 0.01663292 -83.26109192059029 -27.232798928830025 -5.536931682051932 
O -2.10035117 2.06069111 -1.10811139 9.814160923070544 -0.17790517415062518 -22.646127314072327 
O 1.5493806 -3.01134174 -0.13249176 7.522759782729141 16.58537815784406 -6.152710764209194 
O -1.29583464 0.31644948 0.19631309 -50.5738470217063 -23.618551562547605 -4.8721307578303295 
21
Properties=species:S:1:pos:R:3:forces:R:3 energy=-406289.0991174624
H 0.53759284 -2.36905236 2.78857768 -19.607829672635674 -10.587071966284984 17.309155891815784 
H 2.66199362 -1.71693497 0.45691908 8.756906594388278 -23.33461738534084 18.015972827358713 
H 0.36599222 1.66358634 -2.42265633 0.8032016560274893 0.40055374802964183 14.851553631053193 
H 3.77579542 -0.98111863 -1.59127681 -37.67504064159473 17.449184755918587 10.20797920755579 
H 2.64387208 0.72796759 -3.00328569 -1.4540039627945787 4.603418965398113 -14.052901970381313 
H -3.57933138 2.47674348 0.30275696 13.128592410869762 1.7879703015973478 -13.32998395666834 
H -4.10152078 0.91601019 0.64498313 8.250227791797723 -15.753256698133331 -0.07075557020549302 
H -2.79185514 1.70639183 1.59167782 15.733677606833762 -3.4160883686567334 33.192631156533814 
C 2.15443235 -0.96447515 -0.09848933 -10.457369231855536 14.13273855816128 -10.709931327454797 
C 0.88109074 0.99329355 -1.7004251 12.005164524505869 -4.5056397193628115 18.282738687453545 
C 2.74488504 -0.52424054 -1.28486638 45.7838675743388 -19.067210300050792 -5.503525917349597 
C 2.13247884 0.42547453 -2.095142 -26.079723144660306 5.985143577942384 15.451455755218209 
C -3.16028991 1.4927246 0.61694581 -0.132940025886529 5.277308022120467 -39.87581778009571 
C 0.92391939 -0.44690762 0.3535379 1.8465889933914104 41.258717541297116 -43.21211462217225 
C 0.3659945 0.66974412 -0.39237468 1.6706048493361945 -31.401403404521595 -26.524078750507382 
C 0.14375133 -1.05866416 1.42634128 20.75409410071401 -3.3810212686681833 26.59554344169871 
C -2.06946589 0.89444694 -0.33266463 -12.474269401415468 5.34651728168126 17.27562680172461 
O -1.04280533 -0.95642915 1.64493143 -11.320793995553068 -6.705060278586542 1.28440902253817 
O -2.2794485 0.20576973 -1.3035975 11.838204478614893 13.244252652465978 13.58185709023956 
O 1.01172516 -1.76625028 2.21670171 11.35830388689751 4.490774266723272 -14.046090614289938 
O -0.74904967 1.25246097 0.15238586 -32.727465577140855 4.174789718270374 -18.72372537570737 
21
Properties=species:S:1:pos:R:3:forces:R:3 energy=-406284.4633623724
H -1.13752787 -1.28250696 2.71677639 10.867547103498968 9.956353910583298 -19.272657353828567 
H 2.62390149 -1.8770829 0.32955399 -5.4916641494209655 15.13830176160342 1.4230350603429016 
H 0.27965389 1.82729448 -2.00827717 4.000070845271827 15.945950246555473 -31.131206964139103 
H 3.57299074 -1.07308248 -1.84771003 4.366624732254811 0.359001392737514 8.491877962126642 
H 2.37347821 0.68335425 -3.14975834 8.48214711461866 -1.536369906866834 16.54238740162247 
H -2.95639406 2.51384504 1.05919182 -3.484765194567626 15.72073318428963 0.14288906446707614 
H -4.09646941 1.23098189 0.42946169 -15.335706577043503 0.9039229240792787 -4.4124946619774255 
H -2.90327936 0.92173184 1.75003651 2.115642302285034 -6.874345719549801 1.1720382485250818 
C 2.20755084 -0.97716584 -0.18550736 -53.742727276788926 -28.419514084448245 52.48137417285882 
C 0.89974393 1.01397757 -1.67112916 -28.74034864098153 -20.883602360491825 64.36628695667623 
C 2.72386676 -0.57681648 -1.35176895 18.852900419771107 20.627896653298162 -59.82232743019419 
C 2.07399026 0.43035697 -2.09824157 -6.86874152928381 11.554321291713126 -42.29859959164743 
C -3.11172385 1.46352295 0.81442423 47.74999562996968 -9.869894512258353 -24.324038006876307 
C 0.91492987 -0.45330493 0.28700709 29.90528026397464 -27.00699014186195 9.923223256363762 
C 0.28910459 0.54715916 -0.4397855 25.319238320192657 35.20780002736579 -21.675209058326157 
C 0.3740958 -1.19206355 1.4737156 -33.95364367136718 29.644481455386046 -9.194414083691532 
C -2.06538703 1.01814189 -0.28001701 -44.476549675002346 -33.066483513601916 -24.96194688140427 
O 0.92738259 -2.16763966 1.90439409 1.0603493216137596 -19.431557374066145 23.73883650622536 
O -2.41254273 0.38791347 -1.30696266 37.20405623832635 40.2196738664267 62.064999626269746 
O -0.8605382 -0.69500599 1.95028821 25.145687480924966 -23.593153647372617 7.0832506274993134 
O -0.74540582 1.3333009 0.08855832 -22.97539068660448 -24.59652782516283 -10.337303665071389 
21
Properties=species:S:1:pos:R:3:forces:R:3 energy=-406275.89449455106
H -0.6720245 -1.02211884 3.07445612 22.834599339568747 28.77075309261505 -28.200371983403873 
H 2.98353587 -0.98346422 0.87281168 13.17472559286471 -11.75627728832986 4.4153845078678655 
H -0.19694122 0.91718817 -2.55036688 34.06436733994661 -2.8977576884627867 25.82008762651838 
H 3.95693188 -0.11126689 -1.21868163 2.2531406242744976 0.4147432826726486 -9.912324375124928 
H 2.27147926 0.81639625 -3.05876419 9.826765014974315 0.4004185644303352 20.419683079018785 
H -3.76653918 0.19890421 0.23670893 -3.132361710133111 -5.260819180468202 -2.3057460175415097 
H -3.00851314 0.8966939 1.72053271 4.536143779964242 11.32679306422756 -53.84326592839955 
H -3.70489843 1.99926116 0.30384612 3.28407446900756 -10.080613726409085 10.75733808125374 
C 2.32741633 -0.61543397 0.09281143 35.48099896663815 13.755473149664816 -10.15461963210317 
C 0.5966089 0.60815925 -1.76714578 12.389610079439185 4.296196448658166 -53.70562293624241 
C 2.86722196 -0.07231915 -1.11826349 -0.8227641458324102 -8.724142358872125 40.63975452962987 
C 2.00100885 0.51512575 -2.00733308 -26.065387754028574 14.981447282671137 -56.996646316582755 
C -3.14268064 1.05861547 0.5358702 -20.58017565692188 -9.4099311297966 39.624230429396704 
C 0.99375141 -0.55701532 0.37013319 -20.041381262927636 -16.164813679653907 -27.30523599327952 
C 0.17437297 0.03237365 -0.62213679 -16.78724640370335 -5.472969680622119 38.809997080173176 
C 0.25023478 -1.36526028 1.39039091 -10.550745524344999 60.56824444310499 30.419433296621598 
C -1.91421395 1.14158422 -0.30083974 22.453705318669844 57.2973574899561 -0.7617548388085045 
O -0.10188125 -2.51021433 1.31310049 3.2013610793686653 -7.422848430452143 8.152812592823713 
O -1.61221289 2.23085147 -0.82503519 1.4464455394438744 -59.51733307120072 11.01393552587441 
O -0.12762169 -0.43464415 2.41345103 -16.522549801334748 -70.86478550970125 10.490773810736822 
O -1.14166466 -0.01639773 -0.2902275 -50.44332251329159 15.760861368504854 2.6221574615711654 
21
Properties=species:S:1:pos:R:3:forces:R:3 energy=-406274.449921926
H -0.34983455 -1.09904325 2.96099893 -3.9483903924211226 -10.733224410272165 18.301199549506222 
H 2.21812793 -2.08346954 -0.17224998 20.769220433983794 -35.2388792111748 22.60343301311237 
H 0.44894144 2.05596982 -2.00642476 21.305958614283323 -4.584971147376948 12.524032381633903 
H 3.64426838 -1.00711592 -2.07104728 -20.9885570096798 6.758421039860204 14.359126025800066 
H 2.41049686 1.1311544 -3.12091137 11.62880152582583 -11.004227208966313 34.82678268107804 
H -2.81241818 2.84866034 -0.43401859 15.566019112346364 24.166738845051565 -15.232617224361757 
H -4.15667027 1.6701626 -0.32696535 41.12904208075173 11.907991233025355 30.246069817079253 
H -3.22384632 2.35021521 1.15463382 -10.618638522544122 9.753714881043749 39.59487542938938 
C 2.01172717 -1.09924714 -0.48384036 10.286865952677468 21.633082765647497 -54.6488688720463 
C 1.0466961 1.26727505 -1.45836518 -3.4782526653799786 -2.443844364980527 -62.026747410950165 
C 2.74573455 -0.52360896 -1.57624092 -20.740257940742875 7.996491733362374 7.52400015154383 
C 2.19459246 0.68755674 -2.07897068 -14.038909282032034 10.604593658068792 -20.123032156908824 
C -3.12054779 2.01172205 0.15581019 -51.38868513966357 -24.219984581683715 -48.75087721192005 
C 0.7897643 -0.61060436 0.0146873 -1.9486893713203362 20.881147710925468 13.85480819291319 
C 0.28132309 0.56921484 -0.54560122 -20.17036301816079 25.978673404178625 21.131238555463725 
C 0.38697719 -1.22792284 1.29150924 -2.279072158920434 -20.45479405438606 26.360380898315462 
C -2.19278283 0.86242311 0.07266268 -1.0683144815834302 -60.02927691923794 -15.417566175528883 
O 0.84896333 -2.3188995 1.61048345 -10.849769274369105 2.855899391340649 5.715390634631295 
O -2.59115241 -0.30399468 0.1504497 35.40895796641819 39.023036946112 -0.6659155960053578 
O -0.36221237 -0.50047427 2.20493754 14.02989348461512 4.451871035649135 -44.71620885179411 
O -0.89120438 1.30014272 -0.25340487 -8.606858728263186 -17.30246430365011 14.540494983227662 
21
Properties=species:S:1:pos:R:3:forces:R:3 energy=-406275.3893267199
H -0.81293996 -2.69773348 1.89212501 35.62066259785861 -10.840614735889744 -38.383153679541536 
H 2.31366764 -2.00655825 0.30697755 -0.7752257658973024 -18.122674190948253 8.814537497250566 
H 0.98163975 2.41527772 -1.59209857 23.128234718757334 -33.0628655735889 0.7624615881522476 
H 4.04252174 -0.74905897 -0.97719323 -33.0484163441367 11.17196396764278 -0.018475091905235323 
H 3.3584588 1.31584737 -2.14625609 10.178446334391483 18.637295622908592 -0.6404915927673447 
H -2.54227292 2.69789026 0.65450821 -13.04697116241474 -7.674758324475805 12.166161076353749 
H -3.97610951 1.40174483 0.37598538 33.69841347841317 17.67368558227231 9.690643431219895 
H -2.75828354 1.10738993 1.72000732 1.8922703775676222 22.663371523731243 -19.571063291087423 
C 2.00184703 -1.07703786 -0.13528367 6.65288059507524 44.77459037937886 -21.79591971175963 
C 1.35846494 1.36686706 -1.25192452 45.608800069952565 113.23909740352875 -67.4109892175853 
C 2.97665852 -0.31659681 -0.88203613 30.50759553396938 -60.64210805027347 28.699101041698363 
C 2.67956288 0.90220255 -1.4105773 -24.103584387754452 -0.38439693627041 -21.22008975483956 
C -2.88284096 1.63289783 0.70217009 -27.55767476348995 -27.65602320362759 3.77274539318522 
C 0.72086266 -0.52217943 0.06913304 -5.486760779393485 -12.794138699616862 8.794876584298782 
C 0.43191551 0.77134253 -0.55369505 -68.03486745749048 -92.47860224080546 90.42426332916388 
C -0.15884224 -1.24853694 1.09955541 8.591160829248969 -25.045560309217496 11.536142655069527 
C -1.99377984 0.88330688 -0.23410676 5.26964761815976 -19.926095740782134 -33.774200487319185 
O -0.74352721 -0.79845291 2.08275159 -3.6928969471947886 35.884725971788356 -16.798482058119404 
O -2.27413133 -0.0211648 -1.00367438 2.6145172165682498 9.82194939570428 20.66140677025259 
O -0.15610896 -2.63650661 1.07156136 -25.8593726919695 24.092215921381186 17.384711665617708 
O -0.7182382 1.44103415 -0.21600931 -2.1568602560420347 10.668942237159781 6.905813852662075 
21
Properties=species:S:1:pos:R:3:forces:R:3 energy=-406265.994323744
H 0.28823254 -3.35650801 1.46663266 25.07111712441272 54.056481295853274 -11.725449498582721 
H 2.9687291 -1.14465975 -0.27760558 -1.2385236771419514 -19.777231324061496 12.121264705710352 
H 0.13096499 2.76552498 -0.27222622 -10.55196454838085 20.13311637908868 -0.21452569971015517 
H 3.89107357 0.83094749 -0.85606065 2.208346234241105 4.283295901492758 -11.12520230049316 
H 2.62858311 2.84648046 -1.06010559 7.708620630281064 48.732236105068296 -10.23303916373251 
H -4.12946801 1.19331589 -0.46969278 12.78978199309184 -11.60814570901599 0.5320814610497308 
H -4.03929155 -0.49986865 0.08880359 7.138904766677004 -0.2828218770651053 11.577208823732569 
H -3.25468246 0.96179903 1.01618646 -19.80345575650593 3.1251187151807893 51.79947489496702 
C 2.31961358 -0.29292457 -0.10554973 -23.770675801325204 -33.77620452488785 5.945157692252747 
C 0.79811245 1.92572215 -0.17970354 23.485976769543413 79.0444569492293 -22.50773251137167 
C 2.82305424 0.87055314 -0.60457455 56.96305437797611 -0.4123645256532711 11.846498111014457 
C 2.149777 2.05423976 -0.56592476 -46.98265675985298 -32.98408318071931 3.7586957854257066 
C -3.49147405 0.46210521 0.11122982 -28.296838525540643 19.078960600801047 -14.398958940574696 
C 0.97685421 -0.37443081 0.33823758 37.13596757965454 32.82983869391049 -22.029197985499913 
C 0.2230905 0.79150604 0.24119182 -50.16397034860869 -37.725141580811425 12.714117123753633 
C 0.26411807 -1.55916126 0.5612739 -26.840611148283788 -146.04695809016246 37.60555508573008 
C -2.14579212 0.41835041 -0.43192058 45.10286596297924 9.920970196375317 13.109377366631481 
O -0.77061132 -1.97714755 0.06089805 -11.821382421248545 29.296502269276203 -12.20313141912201 
O -1.81410691 0.25887473 -1.54605787 15.75414724973929 -11.154267960165129 -65.01346420850402 
O 0.8784896 -2.49473826 1.41966349 -5.425488220097246 -9.911149226467797 3.3482036712049363 
O -1.13884121 0.76175304 0.56567129 -8.463216667431551 3.1773932643758145 5.093068191939177 
21
Properties=species:S:1:pos:R:3:forces:R:3 energy=-406280.9000184127
H -0.67036899 -3.01651349 1.8104015 -33.588122634515734 -11.581126776470368 16.84209655621148 
H 2.33884268 -2.13100633 0.21503342 -1.2197639881855442 -36.37744291737684 8.601254537997194 
H 1.19401962 2.50079015 -0.78295556 10.823004107527444 -1.6151831310836284 -8.189090416100791 
H 3.94265764 -0.88514659 -1.06238547 -1.5789681563220181 -0.33103854663883914 -4.498847336408178 
H 3.27678451 1.37424746 -1.94474756 15.73147197968718 16.00067233039057 -8.856296185404792 
H -3.79847863 1.94827254 0.28474957 -67.51871987384324 -2.6406693139288437 -44.35173370910572 
H -3.0759125 1.01583308 1.57198856 0.42897432105228456 -13.338812394359898 14.299869362282958 
H -2.6561464 2.66950024 1.09258571 23.726634407656373 17.420931383663504 18.20877784295923 
C 1.97532446 -1.20504981 -0.15440952 25.542942274803103 39.36702940186334 -17.23220914992626 
C 1.49470598 1.43934205 -0.70891974 -32.761767822554376 -10.152095019095068 -11.040949715135847 
C 2.9611089 -0.42860154 -0.86567448 -25.0720693387131 -55.869959793982936 23.602659188881752 
C 2.63404864 0.82886219 -1.27903132 -19.99291675675518 36.139108302694076 17.08728284490121 
C -2.91678099 1.6847003 0.73940829 60.43031685389666 -13.146380912389045 -8.175136859846045 
C 0.68231243 -0.72349304 0.16120321 59.394298208516 15.347437904657012 -42.82686152310623 
C 0.47181774 0.65713381 -0.10886318 32.21649054489865 13.292942464637283 11.853342670095136 
C -0.3199676 -1.54663584 0.71353194 -71.8394331726388 -2.1707557070654975 63.87906629163851 
C -1.83010266 1.17597986 -0.23139708 -8.265112217574009 15.210638031263969 -17.855284588982936 
O -1.47606433 -1.1121751 0.90421552 18.45459617426677 -24.241130142585778 -9.564705678613239 
O -1.91757453 0.87657654 -1.4217207 6.062121151179119 8.842658057548432 57.377246253862104 
O 0.06343762 -2.72579342 1.28583881 39.46842303044853 16.413132907548615 -33.73328254628696 
O -0.57229841 1.32973391 0.45884733 -30.44239909283011 -6.569954943469013 -25.427197839912584 
21
Properties=species:S:1:pos:R:3:forces:R:3 energy=-406271.41598012304
H 0.55584059 -3.53499697 1.21632747 -19.593113633448002 -35.72457253870457 -12.088577548562228 
H 2.92295056 -1.10540149 0.609759 -7.395189154541385 -36.96742209102433 16.259507419326084 
H 0.24702174 2.31462984 -1.50849695 -10.804470910390927 24.588712078645024 -12.303547931164838 
H 4.01157434 0.87649666 0.09975519 28.48185269686533 -0.06703446376142189 4.07859947243745 
H 2.60677669 2.61645434 -1.12006451 5.062532114169491 -2.3816290779522813 7.6018694622075715 
H -3.50616414 -0.54357908 -0.76890026 5.053240020448731 -18.02994298510811 -0.7069295885423522 
H -4.09098603 0.56991678 0.49811555 -41.582777531077014 -3.938978530774662 57.28404546288753 
H -4.10766202 1.09027686 -1.11406357 18.414172720610956 -4.493954638770117 8.50699836629119 
C 2.19564283 -0.35941356 0.34589433 48.41300833605308 17.501816237248622 23.029849518167246 
C 0.78338134 1.65224754 -0.87013631 21.14397901678785 5.053572050341765 6.6184917847253155 
C 2.95418859 0.79207432 0.03526881 -92.75116439417583 5.243125544632641 -27.05117146241428 
C 2.14334892 1.73596836 -0.62370402 46.93393848797655 47.09130049831676 -21.455731369925612 
C -3.53242466 0.45879198 -0.3630645 23.26037194379535 34.17157860658616 -52.06932388978288 
C 0.80064456 -0.47702567 0.30000761 39.37973547437712 -6.3039195491388575 -11.087152860572541 
C 0.14376608 0.5892902 -0.35115799 -41.64493234123188 -59.696151327557175 29.531524885775962 
C 0.31110351 -1.87938945 0.37062831 -41.147868175686746 -25.30755086795787 -71.82178222636092 
C -2.17448332 1.03599103 0.02664088 -12.720050972270565 0.6020271154804306 -1.1126286140929706 
O -0.42815255 -2.40519223 -0.47916437 -3.4457208507889496 27.12996927095747 18.677266092924622 
O -1.95934595 1.93338485 0.80499019 -6.974955520423214 10.873931564013589 5.150792774664141 
O 0.93388699 -2.66990115 1.20373339 51.03167236882113 32.8004516767349 62.09776030432277 
O -1.18189323 0.33427234 -0.55004984 -9.114258510050043 -12.145328572207976 -29.139862423953346 
21
Properties=species:S:1:pos:R:3:forces:R:3 energy=-406272.32537939615
H -0.67225846 -3.08364125 1.15954383 -0.8894274476062621 56.611645797399646 -12.130536640473322 
H 2.76330751 0.05449996 1.77903332 7.183039840208515 -24.79794308738234 40.64187359184005 
H 0.38055697 1.69703762 -2.11639575 -26.285540174604606 13.139862454096164 -34.048000637862145 
H 3.79164963 1.68337217 0.46244528 26.546150437646798 1.8509065678218957 8.361110360397394 
H 2.58939523 2.35434594 -1.91660371 9.757631647960503 -2.4327415225216873 22.509153124985435 
H -3.38525797 -0.93246882 -1.79459093 -8.832183700244263 1.514761875756616 5.418501362490978 
H -3.89495177 -0.68599079 -0.1232367 -4.42649920853717 -34.00946026802825 58.90160023606426 
H -4.2461808 0.61803965 -1.14892157 22.789663836830815 -26.088042865122897 -4.9921927671513355 
C 2.14899903 0.3479541 0.97406979 -17.906708904487584 7.119899612763961 -34.556239980949954 
C 0.84292957 1.31556412 -1.25342623 60.85862592934184 -10.415214479471759 9.301831683193184 
C 2.85708878 1.26017227 0.16305897 -60.03640963283293 12.160858084633581 -53.43610597131959 
C 2.22291922 1.72483201 -1.06629005 -42.72710314174423 -24.625553166919214 29.54671406756121 
C -3.46583943 -0.21471829 -0.94210146 -0.10204701598183127 47.82015354636771 -84.37500359305562 
C 0.84513362 -0.21064168 0.66800122 33.4894101473168 -10.261707573353881 -17.31702262863859 
C 0.24718147 0.28801114 -0.52183859 -24.42595102507988 10.15408008352699 26.66733897696203 
C 0.42862688 -1.55606459 1.2562004 25.110419977179546 10.115245630073556 27.428117885049218 
C -2.16242562 0.54151267 -0.85467023 -7.418797665757132 44.22032102072715 46.622729240878115 
O 1.10048417 -2.1670767 2.07866867 11.701655999283714 8.141042133115667 -0.9318324082308588 
O -2.181927 1.75678266 -0.6476738 17.07193001981154 -30.15316429554527 -14.0228212478935 
O -0.70472647 -2.09001635 0.81673288 -21.749911040974567 -55.50851442406849 -2.7252657873896586 
O -1.0214333 -0.23170373 -0.83087589 0.29204756480725746 5.443562504488747 -16.86395123809938 
21
Properties=species:S:1:pos:R:3:forces:R:3 energy=-406277.7680643518
H 0.99949808 -3.92385705 -0.35913811 -12.998905092113919 -6.0015162091320855 2.149568642426804 
H 2.94507355 -1.42219361 0.24527265 -11.321823288221472 38.31680817780816 -5.666718609775687 
H -0.04744668 2.570439 -0.14949805 -8.50219460523162 20.79431359314982 -0.7045093277863456 
H 3.93223847 0.96805086 0.32681491 11.38996886630351 2.548956728367688 7.700706460616395 
H 2.43583872 2.94444221 0.41748234 -13.00127199092283 -10.694387585176633 -13.751118814781886 
H -3.38356984 1.55036274 1.49843146 -0.8752473995316278 35.15010864763013 64.42299410494326 
H -4.19864845 1.55710629 -0.1019908 -37.09238747037282 11.382695040003979 -8.012552493616836 
H -3.52812708 -0.03807343 0.73831789 -13.239367069754195 46.04305722376723 -7.959809545108424 
C 2.34250184 -0.43411802 0.16860298 -9.408703805013422 -79.37946088144778 8.609831581626883 
C 0.62662457 1.74565891 -0.03261113 -13.107010467822567 -17.93914229593175 14.785469009950058 
C 2.85736164 0.8176362 0.29633305 -1.1911904442478967 36.928158370352044 -12.935591734796565 
C 1.98444653 1.93840957 0.19396426 24.857753529328185 -3.796396593958642 11.232415938774809 
C -3.48483687 1.13507077 0.56173863 32.13748047438813 -97.73215115243728 -39.46310936633894 
C 0.94321804 -0.6793112 0.08765746 -21.973898406815138 -3.6003554727220948 9.576389573384889 
C 0.03145411 0.4493465 0.03383738 33.37081144116724 -25.117396162396393 -6.800275779519203 
C 0.42417123 -2.10745778 0.09615663 26.27612949877919 -44.34130915628551 -37.663762297621 
C -2.22100794 1.28145477 -0.19588449 24.78089335237506 1.7326173609654811 -51.16653342480306 
O -0.71388554 -2.52544281 0.01919701 -7.389070317941192 20.64460012855985 11.12167685452177 
O -2.00274962 2.07729501 -1.11035596 -4.614627345930095 -25.414451449483227 39.78460442519515 
O 1.46187398 -3.11986737 -0.08281409 -1.5680846907567905 59.87553284891075 14.42890566528425 
O -1.32220913 0.19043231 0.10098996 3.4707452323342762 40.59972121109837 0.31141795160263736 
21
Properties=species:S:1:pos:R:3:forces:R:3 energy=-406273.72151561093
H -0.45518732 -3.39789893 1.34316728 -0.5615716446563609 22.289856867205014 -19.04754345799377 
H 2.02871434 -2.40920344 -0.42877457 -13.140164838463036 -2.4748393554952286 6.18944868605233 
H 1.46904164 2.58905104 -0.7263681 -18.31404436308244 -12.779106046209758 13.941754963688265 
H 3.62660999 -0.94266699 -1.478495 18.246981439615904 -12.898832468174591 -1.3507734974082912 
H 3.44068816 1.38865226 -1.57150555 -0.6048398830028453 11.793738561011391 -4.665178897144483 
H -3.46276046 2.61117649 -0.14718338 -5.261210501413563 30.85416715049697 -12.713540814725011 
H -3.90703804 1.06472907 0.46098169 47.20441003884185 19.21539405549071 -9.10564470596791 
H -2.85877811 2.03612338 1.38922122 26.723733068472765 32.9962876509304 109.92042660548812 
C 1.78769373 -1.33936663 -0.43850651 4.60801402195349 22.093987690020217 4.6975020072313205 
C 1.45516261 1.48636393 -0.53828213 50.97578936618145 2.173110747663944 -39.54075455682488 
C 2.78046798 -0.50560417 -0.97195793 -8.363601770416192 -40.47529063704187 -16.807304566705728 
C 2.61948475 0.8325902 -1.11641833 -34.88102094992615 48.76133852519271 32.16227124918728 
C -2.98769754 1.84217183 0.42444993 -41.4465824264177 -85.9568438079524 -106.61418202619427 
C 0.62446494 -0.71451948 0.10295054 47.39760756120878 -28.821494375196885 -8.459641416976204 
C 0.50156076 0.6636266 0.04464004 -25.361918391300055 27.301050044985207 11.68306706855801 
C -0.28252488 -1.49352502 0.93276676 -32.37623605554242 -3.7098269142763702 3.8345159973210103 
C -1.74799781 1.30809809 -0.33635437 -11.589433452901444 -1.7300310852629575 73.41484742328431 
O -1.10373238 -1.06240902 1.72945452 9.160900409273959 -19.70927666316795 3.3210815722282647 
O -1.66692172 0.97097666 -1.47270448 3.053243729907354 -0.6938049211991467 -27.627605002247044 
O -0.11200035 -2.79420703 0.61431811 -4.367137006946921 -42.133768094535014 27.43831001694431 
O -0.67596002 1.13941374 0.6257914 -11.102918351386412 33.90418307551562 -40.671055461974575 
21
Properties=species:S:1:pos:R:3:forces:R:3 energy=-406280.5241369307
H -1.32789482 -1.74237003 2.48024027 29.346936424206987 -2.9526695036653363 -24.254443355475384 
H 1.68990949 -2.52201054 -0.74249367 4.8112862799318945 -25.430857283662235 5.002887687170163 
H 1.32622499 2.45071631 -0.75531503 -12.839100290417818 5.998200653485936 -0.05656247809934658 
H 3.39810689 -1.13446077 -1.81237868 22.463879663249237 -5.191148636520301 -13.505430923789469 
H 3.3089457 1.30330914 -1.81400831 -23.029066876276524 -2.4669773619566073 9.52330155095193 
H -2.83968 1.47243033 1.71339592 7.055111094064702 -12.124286177736959 9.212427891209659 
H -2.39714765 3.10116314 1.19249796 -7.988455424129912 -36.62823576797465 -17.99553875908458 
H -3.71745728 2.15109697 0.38954307 -4.820337651980204 1.034918203449467 -16.958701897181797 
C 1.70623139 -1.45869331 -0.6247032 -19.375873589362293 34.3711273864784 -2.1741495269007207 
C 1.31632929 1.35824564 -0.73578264 66.76792557896798 16.53892954745073 -19.54473094892775 
C 2.59730536 -0.64006766 -1.29901284 8.509654605435461 -11.846639223718995 -0.33051204209417134 
C 2.47296777 0.73315305 -1.30563469 0.13162850780904567 24.62628007522075 -11.177995053485528 
C -2.70767413 2.03359154 0.78673498 -41.86504800135547 69.58667438274131 62.78424989548574 
C 0.68042607 -0.82434117 0.07206044 -30.175053366243517 2.106641920541726 10.652382246244724 
C 0.45768293 0.60540323 0.00136994 4.5321760227424885 -57.541563104640325 18.00420355347171 
C -0.28744281 -1.76195766 0.78579924 32.585853641940915 28.630807235985504 -18.258530150788243 
C -1.70444383 1.5384268 -0.08048744 71.12492381596691 -18.19568163532114 6.228927040334044 
O -0.68540881 -2.77031888 0.29239894 -25.62115665939139 -45.68066082537344 -23.742648920890016 
O -1.60948183 1.51212471 -1.26293173 -17.014388053527743 0.166278198789211 -42.86125270509825 
O -0.49873493 -1.38437023 2.02063684 -35.480703697197555 26.46255242550718 66.40242707271643 
O -0.57267453 1.13392918 0.71025907 -29.120190838612142 8.536308305098746 3.049689824230846 
21
Properties=species:S:1:pos:R:3:forces:R:3 energy=-406273.2130186305
H 0.35417493 -3.39312805 1.08697007 25.101539363361933 23.048680356386445 -11.379100816411887 
H 2.83916071 -0.9988231 0.950722 -27.363428975317873 -8.014882631973306 -1.2463240079861515 
H 0.42945798 2.68714556 -1.21272975 -12.029531961191408 2.9176356066660896 -14.882671946956737 
H 3.69276124 1.26929342 0.93478538 11.29282166288602 -12.649266942359954 -7.865867615979757 
H 2.84665379 2.83031096 -0.77680999 4.829610772564219 30.833848106864348 4.113714005267862 
H -3.71291052 0.68096506 -1.22866357 -5.748189258957798 -11.452105889142683 7.241785414854558 
H -3.87640872 -0.281414 0.38318903 -19.418157596240142 -5.366699955893527 3.4403822844373857 
H -3.86092705 1.63427019 0.3038343 0.2647167613263933 -35.955623840519436 -4.210888482569422 
C 2.11697239 -0.27959792 0.50352963 39.55323532333981 70.47765881338167 -22.8741500289343 
C 0.93413439 1.79642807 -0.8449765 -5.6337278824396435 26.50735155882476 6.001684595720697 
C 2.8112688 1.02850413 0.32007222 -12.397434126704319 -69.89099045209616 49.07569138388555 
C 2.23745092 2.0453323 -0.37229867 -31.418444838781557 -28.309705869716748 -33.99698898808169 
C -3.53044633 0.61217343 -0.13135691 32.16084352064724 47.41427901930221 -21.32727730505818 
C 0.81606458 -0.45481182 -0.06682773 19.339146339908574 -46.284582882886255 24.638575853652416 