21
Properties=species:S:1:pos:R:3:forces:R:3 energy=-406278.6035577541
H -0.13523997 -2.86679123 2.29715602 -0.10244308021137867 -10.079465851636026 -10.134710882552657 
H 2.11722887 -2.35547971 -0.49075552 -6.923888137053577 5.7676853427841115 -14.96239232427414 
H 0.3746642 1.93521954 -2.07473494 -5.6985685772649495 -12.702895699190139 27.546967985260657 
H 3.17291605 -1.21713283 -2.40062743 17.82546593294641 -0.8175275600908494 -8.156979567981287 
H 2.33486878 1.0559172 -3.13101597 -10.618658681501913 3.0848778779661448 29.64525698235049 
H -2.55700788 3.41624469 1.62361319 10.401552635194466 -12.499189430708697 -20.917170582677542 
H -2.29957654 3.15931672 -0.22695153 -3.133398117727795 22.925595689217786 -21.02409013733964 
H -3.2068369 2.00992993 0.67105061 -24.17921012499812 -12.336296751007385 -0.9011753767144244 
C 1.66928557 -1.41967138 -0.9209519 6.816928264475893 -31.723608770184693 49.27233490221375 
C 0.77308105 1.00796316 -1.55861069 -49.17691069677689 31.829991147912708 -10.498218395267058 
C 2.37587797 -0.70027618 -1.89092795 -27.672236934797056 -14.175155376996342 27.691584790992554 
C 1.89895527 0.58086302 -2.18834337 37.02087771798172 -22.819078127890467 -50.29516484591469 
C -2.39610886 2.71453111 0.74464764 29.633952550313737 -20.191458774578894 36.557423278358925 
C 0.48910713 -0.99239519 -0.20207471 -0.34477391182101763 -8.566434088786327 -4.835530391228591 
C -0.00693712 0.22953078 -0.6171975 4.8545675623098905 66.27742018963131 -29.86990603633503 
C -0.30238597 -1.70976334 0.87791964 -38.764433092280576 -4.153471027495514 -7.04844203649891 
C -1.13686899 1.82800253 0.83535273 -6.5825957958252275 -10.97452120592921 -27.029456707409874 
O -1.47296655 -1.4396753 1.21805823 50.38721420465307 0.7215116299517668 -10.246082009423503 
O -0.16806825 1.89694865 1.53409218 -0.9324158321857611 3.6842202945971882 7.343639142005801 
O 0.33309681 -2.77150672 1.43061903 11.357132295703519 10.50288104362209 12.334887995604083 
O -1.20469665 0.83574847 -0.25408234 5.831841818865558 16.244920634632482 25.52722303101005 
21
Properties=species:S:1:pos:R:3:forces:R:3 energy=-406289.0991174624
H 0.53759284 -2.36905236 2.78857768 -19.607829672635674 -10.587071966284984 17.309155891815784 
H 2.66199362 -1.71693497 0.45691908 8.756906594388278 -23.33461738534084 18.015972827358713 
H 0.36599222 1.66358634 -2.42265633 0.8032016560274893 0.40055374802964183 14.851553631053193 
H 3.77579542 -0.98111863 -1.59127681 -37.67504064159473 17.449184755918587 10.20797920755579 
H 2.64387208 0.72796759 -3.00328569 -1.4540039627945787 4.603418965398113 -14.052901970381313 
H -3.57933138 2.47674348 0.30275696 13.128592410869762 1.7879703015973478 -13.32998395666834 
H -4.10152078 0.91601019 0.64498313 8.250227791797723 -15.753256698133331 -0.07075557020549302 
H -2.79185514 1.70639183 1.59167782 15.733677606833762 -3.4160883686567334 33.192631156533814 
C 2.15443235 -0.96447515 -0.09848933 -10.457369231855536 14.13273855816128 -10.709931327454797 
C 0.88109074 0.99329355 -1.7004251 12.005164524505869 -4.5056397193628115 18.282738687453545 
C 2.74488504 -0.52424054 -1.28486638 45.7838675743388 -19.067210300050792 -5.503525917349597 
C 2.13247884 0.42547453 -2.095142 -26.079723144660306 5.985143577942384 15.451455755218209 
C -3.16028991 1.4927246 0.61694581 -0.132940025886529 5.277308022120467 -39.87581778009571 
C 0.92391939 -0.44690762 0.3535379 1.8465889933914104 41.258717541297116 -43.21211462217225 
C 0.3659945 0.66974412 -0.39237468 1.6706048493361945 -31.401403404521595 -26.524078750507382 
C 0.14375133 -1.05866416 1.42634128 20.75409410071401 -3.3810212686681833 26.59554344169871 
C -2.06946589 0.89444694 -0.33266463 -12.474269401415468 5.34651728168126 17.27562680172461 
O -1.04280533 -0.95642915 1.64493143 -11.320793995553068 -6.705060278586542 1.28440902253817 
O -2.2794485 0.20576973 -1.3035975 11.838204478614893 13.244252652465978 13.58185709023956 
O 1.01172516 -1.76625028 2.21670171 11.35830388689751 4.490774266723272 -14.046090614289938 
O -0.74904967 1.25246097 0.15238586 -32.727465577140855 4.174789718270374 -18.72372537570737 
21
Properties=species:S:1:pos:R:3:forces:R:3 energy=-406273.14733329194
H 0.6672939 -3.38456826 -1.00629628 -7.95964234434086 -6.651325983683214 -7.642559725598858 
H 2.79063088 -1.11175561 -0.66937518 22.05928345127191 -21.529433705431785 -14.787857253537808 
H -0.03660198 2.52441922 1.34321395 23.090912187138247 0.8607009327536097 -11.519502028323302 
H 3.8015379 1.14280965 -0.34277993 -5.8211279257099875 -0.9691833995550632 13.571096950063174 
H 2.74017354 2.86412614 0.69221737 -9.849416568605497 30.159466934407675 7.217027843044706 
H -3.87008816 -0.07946934 -0.67005043 11.781674017683802 22.25740924590829 14.819356217997292 
H -3.55707473 -0.1984036 0.95548584 -21.562819311176323 -48.427201428159236 90.70590412846661 
H -3.79573823 1.49325167 0.23396919 -18.03178693683549 5.368248638180319 12.97275062311123 
C 2.25683233 -0.30753899 -0.2384044 -50.966038359715675 28.838980492349297 41.585490689631506 
C 0.71203934 1.8363625 0.85310127 -22.228322241457484 -0.42788099404736635 15.359644746510188 
C 2.77415058 0.9578606 0.0611091 47.797549425578396 -35.98318232164124 -52.00174394834004 
C 2.06951006 2.0340808 0.53664213 -24.632349107336985 -7.631639499581188 18.90138627072241 
C -3.40371283 0.476268 0.22761783 -21.86016631024061 12.7455188508873 -101.54843752280969 
C 0.88643149 -0.5242168 0.13801182 5.688784367809872 25.56109719502577 -20.073294078932367 
C 0.14884942 0.55723524 0.62422003 30.916497462166724 10.452969835772835 13.073859654645242 
C 0.12838563 -1.68842811 -0.32160155 50.83734475899684 -57.92998946082692 -31.848919223457724 
C -2.00429476 0.64003987 -0.06444265 43.07166834906106 7.860035748072828 -18.695185034759024 
O -1.01433099 -2.08042168 -0.33431617 -23.255970176070562 16.58234127014385 16.100318058753146 
O -1.52655816 1.10412451 -1.07037556 -7.181290754164855 10.91345142203193 -26.16613629596444 
O 1.08825092 -2.51344284 -0.93504942 0.11536734379771754 3.4207759192537424 10.478987935355171 
O -1.14644343 0.29626042 0.94248482 -22.010152513671283 4.528842679780639 29.49781199342257 
21
Properties=species:S:1:pos:R:3:forces:R:3 energy=-406271.8277000271
H 0.5054037 -3.48016497 -0.93172536 16.02517139321228 53.223309198695304 7.797921255833538 
H 2.48911745 -1.43237036 0.65209543 28.7503059803094 -5.193638860718054 10.38492030919557 
H 0.30676685 2.87748741 -0.64107347 9.1575362349649 13.70214440555941 -0.9199647111969952 
H 3.96519984 0.60863548 0.61378617 21.49040359150566 13.250219703972213 7.312223185019576 
H 2.94958086 3.03696827 -0.1286004 -18.86374000995761 -46.2712329095442 9.673128854362364 
H -3.59249831 -0.75627126 -0.66410186 10.439260558653682 1.0258976627483678 -6.795144731850785 
H -4.11472495 0.30098783 0.56949865 -11.458720398940335 4.068214051711772 20.692784780965326 
H -4.10744397 0.9427901 -1.07313118 20.387546142836257 -3.856256840388442 3.358784752403294 
C 2.17576978 -0.407653 0.49923689 -25.852524575425683 2.094905849644029 -21.287369683557618 
C 0.92862136 2.04837185 -0.29426424 43.05070777624226 1.7539502815928996 12.505155296393887 
C 2.91137117 0.77316925 0.45518659 -2.076996394377998 32.88375797689707 -14.746436524381847 
C 2.35002606 2.03298586 0.01717502 -10.819869982501414 5.749079810563756 0.013073677038204074 
C -3.53733991 0.30267111 -0.34105899 21.169784854402852 16.48725146624212 -7.59008002936278 
C 0.85718834 -0.41044438 0.06467569 -27.575159694821316 41.407153876619944 10.056383844964948 
C 0.24186219 0.86638744 -0.21957943 -25.04579391596366 -61.290907505292935 -25.252816925912303 
C 0.12717653 -1.7024788 -0.0955093 95.1481036076601 13.154327099221971 -54.641565400220614 
C -2.07435102 0.64878518 0.16178555 -9.867493224639093 -46.355155836650574 29.91865395373762 
O -0.95759461 -1.9850992 0.20984703 -102.88405385560098 -27.51854504059592 34.58022321161641 
O -1.79721131 0.45430974 1.35384855 -10.824729477150173 26.987430023699126 -46.595049806009555 
O 0.94357195 -2.53486179 -0.84614755 -13.321010848809102 -48.48617349462518 2.9974970966880337 
O -1.07589521 0.81705083 -0.8024627 -7.028727761600031 13.184267894826291 28.53767640845268 
21
Properties=species:S:1:pos:R:3:forces:R:3 energy=-406278.3610109454
H 1.01531701 -3.77970188 -0.28002436 7.442191543363453 14.562949690565116 -11.640713098238413 
H 2.9118842 -1.52201929 0.26452466 1.4465060163172485 34.59436175595441 1.5051211506481719 
H 0.06359375 2.65877503 -0.49732843 5.824846660511966 1.824980962281192 14.53706558876104 
H 3.93390661 0.90271456 0.47284856 15.08144638570558 12.100007677629913 5.925977036824815 
H 2.45885801 3.04530462 -0.04204352 5.200542710851063 -10.49327589314504 9.24738115237774 
H -4.19275462 0.68953798 -1.06184845 -8.98841206566397 15.237162476433179 1.601613780847967 
H -3.367764 -0.74189542 -0.51328881 -7.913554223545683 16.30832411434937 21.72603927748649 
H -4.20006995 0.44405083 0.85676879 20.40332942096583 -10.639688031941416 -52.815807725153924 
C 2.37251335 -0.52241846 0.20495018 -32.54944300670662 44.74190677969387 7.674195059478696 
C 0.70520377 1.84994896 -0.09451632 -42.110134681077284 18.337193961553176 -31.416916315452557 
C 2.85664871 0.85063627 0.37207451 -9.933177038228495 -25.11339401636429 -26.243402023715483 
C 2.04896108 2.02385814 0.11004749 47.34854895869199 -37.486348053383644 10.425355621061845 
C -3.6324247 0.32023797 -0.19393422 30.75601911411619 -7.293221588569673 34.968829812602074 
C 0.96039711 -0.64482485 0.00133976 -2.4330711807726284 39.09551670011918 5.217550942121717 
C 0.12590724 0.59652771 -0.13345474 22.949101034002485 -81.9683904514736 13.644643943012243 
C 0.42781204 -2.04075997 0.01800812 -46.25818413474798 3.897037226179266 1.8779243145464708 
C -2.27475321 1.10514529 -0.03364848 -4.14951394266318 -16.471959118025826 -10.472897558460094 
O -0.67592671 -2.43016268 0.45127997 48.7274418305771 11.869831511747401 -16.23517318562985 
O -2.09727603 2.24091432 0.313252 -15.788710375783058 17.530913914088842 8.400942089350977 
O 1.35413326 -2.87290858 -0.54564588 -17.386959982321965 -29.342260731820442 18.901398128932872 
O -1.18920214 0.2993477 -0.35679601 -17.66881304359204 -11.291647700049937 -6.82912799140279 
21
Properties=species:S:1:pos:R:3:forces:R:3 energy=-406264.29912068124
H -0.86465571 -3.11154549 0.48344971 -28.083402595372267 -33.93640064752931 37.474283510056054 
H 3.17732228 -0.90209503 0.72826181 -13.9997641434644 21.964166373486112 -16.45432595906364 
H -0.37757459 1.57648415 -2.03823931 38.24240146460034 -12.361667392298305 24.196432989878204 
H 3.80975371 1.02748374 -0.95782993 26.495412712528104 1.5653881336969377 2.1932471748553946 
H 2.04883382 2.12230624 -2.36224894 15.863381527084256 1.336598192617843 -6.648628240802315 
H -4.20120018 0.3219497 0.43358813 20.21506254251046 34.80794235629047 3.2634293245871393 
H -3.72660409 2.19603767 -0.17807642 -22.502192355442194 -18.4983648290949 10.217424272191552 
H -3.85892863 0.63704333 -1.16879911 1.9094114207954898 11.936018113460543 -5.093870992787691 
C 2.43344076 -0.25154762 0.15256 33.82077835220659 -8.123610563731395 6.00838092717056 
C 0.48833596 1.13408255 -1.38609572 -36.10817023158961 12.76144917082664 -15.139557546091718 
C 2.79027709 0.75972824 -0.76625537 -9.717173805494339 -8.29193193218381 -9.230101368087427 
C 1.83580481 1.36421595 -1.60850789 -2.552772700495483 10.654412371876415 14.619905861251915 
C -3.58390406 1.08530896 -0.18046374 -10.38228778647223 -46.80475751480759 -32.94047105426933 
C 1.09498878 -0.55423826 0.29476181 -68.17173017939899 -3.4776763563513557 16.51206595746221 
C 0.13661834 0.26973277 -0.35530053 -42.80766900946783 -31.25386947901519 -33.67998937681294 
C 0.49779682 -1.7298185 1.07484304 1.5622077616500927 -34.23105939028107 -16.69034110777936 
C -2.08316242 1.05744081 -0.04451955 -14.951506487066819 -34.628132753539084 13.68214079032517 
O 0.69379679 -2.07228135 2.21849657 -0.09408185601216079 12.940208136130781 1.7962734205652846 
O -1.60853221 2.03930875 0.4314356 42.7824406667025 45.79451980479995 18.17819788981082 
O -0.22284187 -2.50873629 0.17107002 45.868347837337055 61.459138751345826 -27.867353115617295 
O -1.32085031 -0.0549981 -0.38604678 22.611305679040406 16.387629454300484 15.60285782897846 
21
Properties=species:S:1:pos:R:3:forces:R:3 energy=-406279.30566034175
H 0.38511533 -3.51128146 -0.26808428 31.74125141571525 35.71801850578029 -11.70541623782232 
H 2.60162537 -1.34531241 0.5757402 7.413003744123693 -16.087054650347493 6.6173201935313255 
H 0.55869475 2.91258485 -0.80381816 -19.341018751341075 18.391651607294897 -11.475283947318532 
H 3.84177581 0.65334518 0.88137628 29.3425322848401 12.68164222857284 3.6251486191633435 
H 2.90418588 2.86079278 -0.30819085 -11.667037139650759 -9.544923811914707 23.381384981595687 
H -3.006299 -0.70621298 -0.77341952 -4.720288744461809 -6.513176645939195 -14.020397429674354 
H -3.82301177 -0.15281405 0.63689388 -27.408783072885242 -1.487412099139007 24.936455286366602 
H -3.71956949 0.95706844 -0.81754297 -11.8833890037726 3.2765397620777863 -6.744863547835009 
C 2.15573401 -0.38831936 0.37527266 -42.287221638705795 -3.230446897998422 -6.027253269126389 
C 0.93293135 1.98801783 -0.42340635 40.06524557735566 28.55800138119053 16.717496409745333 
C 2.85851837 0.77744159 0.48014826 -15.360119074928807 32.19891667698879 -8.935947785101499 
C 2.2523445 2.00072205 0.03366939 36.963451962160484 -10.54054272006049 -21.519450278040885 
C -3.25828703 0.1864979 -0.19715315 -5.82557712627664 -5.964413054406611 -19.21457939643173 
C 0.78804673 -0.33777427 -0.02954015 11.928215410974248 -92.06073313385411 5.141925204878046 
C 0.22169772 0.83594748 -0.3480484 -77.28260791364534 20.112300476437554 -36.63171259528313 
C 0.0276638 -1.67304553 -0.23748189 4.2532365237837855 -27.51358000787402 18.581247791143443 
C -1.96656347 0.64164353 0.29035543 -11.137087784842723 -5.874517146688769 11.56210620688372 
O -1.16890762 -2.01778929 -0.16345287 45.720333654306785 32.38472297677257 -5.495848911894238 
O -1.66156171 0.74595596 1.45497629 17.1263224453957 8.723471184159779 1.9088813587876823 
O 0.98641579 -2.67185421 -0.39916046 -50.05575824900584 -25.30477723252999 10.508123558468883 
O -1.1514073 0.81275128 -0.79494192 52.41529310921882 12.076313787298815 18.790663787964025 
21
Properties=species:S:1:pos:R:3:forces:R:3 energy=-406268.97125942685
H -0.80342761 -1.24350438 2.88457189 6.8698443428571005 11.147227740611765 -36.856266783583955 
H 2.64305909 -1.80332967 0.24226924 -9.450203984179502 20.62423602372746 -17.916210888533584 
H 0.76652688 2.2974005 -1.98118315 0.06487864109879558 -18.3595893778383 13.53528159699425 
H 3.90548634 -0.54783037 -1.77538268 -36.77128610410406 -15.680242138834164 14.075236909793066 
H 2.52343833 1.20919023 -2.89712755 32.45781580026082 2.71196324688947 -5.620975562905055 
H -2.90478011 2.88123608 0.32093049 11.031844981140443 1.2644658841773067 6.333104976736524 
H -3.99663311 1.7744658 -0.43393204 -1.4903517495134022 -15.933931950248697 -1.1105688429351148 
H -3.44817429 1.44198978 1.29320983 -11.339894015149834 8.521474869627463 -3.280030819238827 
C 2.19915014 -0.91834232 -0.33409132 3.741361453367251 -67.84965999733522 51.35772572378027 
C 1.13702071 1.3564352 -1.48320637 -46.221481787536234 -8.280304956822395 18.06194829515447 
C 2.81963033 -0.36816021 -1.41586433 82.02069346037375 -5.302619372359058 -9.336095982333221 
C 2.29442563 0.76905162 -1.92696971 -27.875672836079886 45.17791539119428 -54.951115683674935 
C -3.1605501 1.80891787 0.28349949 29.49672933880707 -1.1272153987865716 9.623490385353819 
C 0.94649453 -0.49900622 0.13266009 -56.58760801896505 8.488168713893037 13.588526147805352 
C 0.3694152 0.63834186 -0.51379814 7.519069507632279 52.465778254454605 8.530013966983663 
C 0.17287334 -1.30174812 1.2255338 8.585489047183325 -64.91805186127765 20.103000081969473 
C -2.00559207 0.78873546 -0.03878252 -58.92383319486601 69.96738104391484 -1.5934328014478243 
O 0.23685741 -2.53194413 1.43260878 24.22699634153196 36.47798038316642 -32.798100193599595 
O -2.35615388 -0.33764053 -0.20399145 28.788649503849566 -44.86753977629157 -9.637330102788093 
O -0.58915507 -0.63325493 2.10119714 -4.789674691358536 35.2889801503915 21.664575801001753 
O -0.7915349 1.41730211 -0.12588671 18.646635149471216 -49.81641568643351 -3.7727797819955704 
21
Properties=species:S:1:pos:R:3:forces:R:3 energy=-406269.7784369367
H -0.87668478 -1.68676848 2.73028121 3.178467618243988 -18.721022889542287 24.450686066289848 
H 2.79278266 -1.87159708 0.45615697 -33.19694754514325 26.10716660114059 -18.448435833929945 
H 0.41670381 1.46328932 -2.49143742 -40.81393029658909 38.20933365889628 -23.104438847816237 
H 3.54310587 -1.11401872 -1.91486601 27.769681779297233 -13.23614163650758 -9.739505187442951 
H 2.16115289 0.34672143 -3.21360719 14.353840821395597 14.993258060294767 -28.256525353242157 
H -4.03330296 1.86758205 0.43684639 -13.032885980023828 6.3755170522874 6.671881005704096 
H -2.96545855 0.96802573 1.65199864 -4.12039136358098 -20.70592842144528 16.661075044350525 
H -2.6102803 2.63112187 1.33926205 -3.198674008877185 33.097053980181954 20.111547480072996 
C 2.1363036 -1.14970732 -0.18098668 63.60093552263355 14.880249314558636 -46.22767888832551 
C 0.69528852 0.73042597 -1.80616112 -17.9798266302178 -11.165626939970021 26.445949745034447 
C 2.65531386 -0.71199799 -1.49325214 -46.84298364206414 -20.45441340583012 69.31792108657245 
C 1.87229643 0.16723697 -2.20402627 34.85429491517903 -29.69840548165682 -13.406733852264137 
C -3.07012563 1.75643238 0.93089656 45.4646326903973 -10.147930415579587 -56.495756692341445 
C 0.96537195 -0.53969977 0.26699185 -32.13178853336469 -29.161285466980303 -1.3417410984967268 
C 0.1353615 0.33259002 -0.60806919 23.553593471438692 4.5481905359761345 81.95703740077396 
C 0.54373504 -1.22972939 1.56113466 -47.0714794995237 -5.621771248827289 9.351006496172529 
C -2.10006482 1.44801074 -0.24626361 0.3264328176940423 -43.09333567122361 -41.00714916373485 
O 1.26934222 -1.93329734 2.23360478 16.743426758570223 4.600861149400706 3.1105841066132367 
O -2.39214089 1.42297626 -1.44333392 10.187731313185962 11.64618921983138 43.25477809178499 
O -0.81687605 -1.20765723 1.90740767 21.823819709342835 35.92802266983996 -45.964497765254386 
O -0.83889594 0.95099016 0.20308525 -23.467948732172726 11.620020520976134 -17.340003840520712 
21
Properties=species:S:1:pos:R:3:forces:R:3 energy=-406277.59451834497
H -0.68394985 -2.981529 1.10124314 -0.9278278905566625 6.833825028568171 -2.579696767357381 
H 2.73571743 -0.1832459 1.66028616 -12.043017118132765 -2.5852879135918605 4.575449004373159 
H 0.63452667 1.90924197 -2.433839 -9.273571196011824 -18.895792752845836 27.415956104395818 
H 4.0641447 1.1307523 0.1345059 -10.635646753814775 10.090930369514064 1.0487567350626954 
H 2.88191333 2.20191865 -1.99833296 5.856244830182493 -3.2900213615560037 9.774963608376863 
H -3.40102881 -1.08479047 -1.51349379 9.635729244375254 -24.09968066486921 -17.748749240339915 
H -4.26566075 0.12591014 -0.78506754 5.029266276350648 9.65598069620822 -13.705641391825683 
H -3.50294055 0.51110273 -2.38866349 13.07619335046485 2.8760868088371017 -3.910865085403076 
C 2.17565205 0.30727381 0.84768526 -3.7168517181561276 -0.3544312384241137 -31.013566401395146 
C 0.97066605 1.41619269 -1.46212115 46.20877215755932 32.414234505158035 -34.415481836903524 
C 2.96041677 1.12184031 -0.01707203 -16.32938903942027 -10.770146134377516 -20.209939795589364 
C 2.35249568 1.61874392 -1.21825242 -1.8888563987746074 1.951059827592388 22.94380041392441 
C -3.35251252 -0.00832002 -1.4339636 -37.338690802488394 -3.829835561650281 44.88628523539542 
C 0.83481828 -0.08520788 0.47552125 24.56015750784412 -31.15734127418399 30.187887507430318 
C 0.24867677 0.54960917 -0.67055696 -13.360319630681158 -32.750036494940865 27.07407441010733 
C 0.3634274 -1.4352118 1.2647782 3.2356894128452156 50.33717611395183 8.831088001597251 
C -2.25961073 0.33091755 -0.46383492 47.19440763831421 -7.577222171755049 -100.53457001457856 
O 0.75979619 -1.73096905 2.39629209 -8.125794846099136 4.957562049307915 -43.2016331499418 
O -2.38553076 0.75310931 0.61232622 1.9756252963926997 21.29874289321507 75.68935535699657 
O -0.54376049 -2.16440111 0.55958415 10.529499168653977 -1.7014006219150755 7.254231792559138 
O -0.9569948 0.17538972 -1.16591979 -53.661620674668114 -3.4044044738850854 7.638295513115468 
21
Properties=species:S:1:pos:R:3:forces:R:3 energy=-406265.270646558
H 0.97720296 -3.78278565 -0.07741953 -35.70051815877532 -72.73117890039107 -23.443897909706617 
H 2.98129044 -1.24230379 -0.44210951 -30.292115248316755 16.98092536941517 17.331122040882057 
H -0.07881582 2.60235546 0.3763535 1.9359121495437694 2.8565492212741583 12.723632151831143 
H 3.94371179 0.94990154 -0.23501313 -29.856377004014952 -1.7750223215900776 5.4646369161280175 
H 2.44804151 3.01166977 0.24884655 10.230450516387894 26.775460954165332 6.160530068190138 
H -3.71764837 -0.41665238 -0.15705356 -15.480010326019114 -10.851617969380674 -1.172976232972902 
H -4.16738321 1.38573292 0.24944779 1.5396771617656595 -29.536448414761235 -9.89231364496441 
H -3.57528225 0.93138088 -1.37395965 15.826070853675635 -6.139184103531207 0.9678955978985108 
C 2.25031898 -0.40893533 -0.12351534 65.05317142624773 -20.456260915020643 -31.215790393568398 
C 0.64645552 1.77735442 0.40111469 5.916254490064158 40.40541731769501 -28.017493475784022 
C 2.81460232 0.83339465 -0.07139713 34.249517880691656 80.4067329107891 24.181448955134012 
C 2.0139468 2.03936813 0.26177118 7.29423309392238 -95.75278814810586 -15.907036343091914 
C -3.49869878 0.64074165 -0.30541914 3.742626724423919 42.45167367308332 43.14653990411912 
C 0.87705206 -0.53537413 -0.18243715 65.53841058431667 -116.72901854800676 -0.9312205245708395 
C 0.13384927 0.54310208 0.00646549 -24.033250969841536 43.667459231657695 18.697042030517924 
C 0.41303119 -1.94008649 -0.47559722 -51.0135008471038 -5.4037485628508595 -7.832219943783925 
C -2.15941467 0.8791986 0.44257153 -10.21323950971828 56.409090961154405 0.22747486553847157 
O -0.64653916 -2.13248332 -1.09568041 47.521846032255716 -18.07982691907329 24.10877709811729 
O -2.01065526 1.59214196 1.4564897 -6.250774607295666 -49.209648844230024 -47.55917093551691 
O 1.24914065 -2.92385037 0.09404321 10.05196073246132 110.66325455457266 1.246348910228129 
O -1.13765967 0.37359361 -0.33111152 -66.06034497467107 6.048180638955888 11.716672051196166 
21
Properties=species:S:1:pos:R:3:forces:R:3 energy=-406260.12840732647
H 0.80666767 -3.55220254 -0.35486551 -0.20256669445570724 4.108318519506063 16.153062193082604 
H 2.95833914 -1.44302971 0.01112636 -0.35803613440562304 -14.388663642248558 4.186598124251911 
H 0.23165813 2.6947462 -0.6068572 -18.270050402255468 18.671812501931544 3.2096689416207886 
H 4.06663311 0.59423519 -0.19928462 66.75763265228395 19.09266276299392 -8.113579703498635 
H 2.69435959 2.8926733 -0.34373178 -23.104345167953557 -39.489306524899305 12.97170591476922 
H -3.47800616 -0.1061561 0.94330841 9.255182669042988 -35.70235736721852 65.16836919763577 
H -4.32178887 1.13777591 0.04946716 12.984074028284729 -5.476432278078042 -3.631427541604822 
H -3.90146331 -0.43435485 -0.76432815 14.916202222868957 25.24024129371365 27.053589351528192 
C 2.37662985 -0.54072496 0.1358283 -2.4946674692145763 63.918806712371506 2.1878220435674325 
C 0.72095797 1.86687004 -0.13729761 79.62148932869056 6.7422262818274845 13.704952429797636 
C 3.061956 0.72300042 -0.00664725 -138.54403472190003 -8.493507280244602 16.1677865330176 
C 2.16671382 1.87046339 -0.05824228 57.61185620463767 34.9031365124443 -41.60733469913 
C -3.51752589 0.34953068 0.02584473 -41.29308500686819 13.774618230461352 -100.44029012645163 
C 0.98095311 -0.51151315 0.34034579 -20.563903820521137 -28.460947857635716 23.416384489784587 
C 0.18872711 0.70186948 0.29230172 -60.262245693685074 -81.7073568503178 -17.346477237613826 
C 0.26698047 -1.90803688 0.42859952 -7.914553870687924 49.248833114892186 -36.83179262300423 
C -2.2052548 0.91966195 -0.43471323 12.645670347125773 59.85602727851607 -16.950774683485612 
O -0.93275456 -2.13299399 0.39309789 17.428085442037336 -8.829100565523236 11.399244358529616 
O -2.0221637 1.82770258 -1.27699968 -7.909038617000424 -52.158023304064756 35.95996038808667 
O 1.22177151 -2.80641666 0.14884572 4.370376670046093 -39.31001394012422 -8.696037214247866 
O -1.24014793 0.39389235 0.37482766 45.32595803392966 18.45902521587563 2.0385686775435268 
21
Properties=species:S:1:pos:R:3:forces:R:3 energy=-406268.8431439514
H 1.21060909 -3.76046799 -0.14407203 -9.928357861495318 25.17615122361081 -8.428344042094635 
H 2.75861662 -1.13328671 0.55910689 27.61601834480121 -62.719705655922084 15.462048694627033 
H 0.04907045 2.83223809 -0.0572738 -0.6249229482472011 -15.377391744292845 -4.777483265178965 
H 3.71741289 0.86000474 0.94688748 -9.440410288156054 2.128608069608002 -26.45452560284309 
H 2.47047005 2.91497032 0.52641783 3.924855402110262 15.275830914940098 -0.8299857960058943 
H -3.87217032 0.18831387 -0.91792422 16.39969518344912 25.115056537471553 20.264572942845977 
H -4.17140382 1.06035615 0.70548591 3.4553900356025116 -4.95213098891472 -12.262935931962623 
H -3.82710645 2.03206532 -0.7277459 15.862091353785612 -16.13597688344392 3.489880826562439 
C 2.1687608 -0.35941866 0.22522993 -45.670265918079394 -22.013825001452446 -55.50714124329658 
C 0.65514083 1.90010801 -0.1092885 23.466306370023258 -23.884476675520435 -8.507808282065984 
C 2.78299319 0.8298407 0.29983107 49.291225031485276 19.522011803496916 57.137396159881845 
C 2.0426946 1.97135306 0.2074925 -55.30214124405336 35.518889506538535 -13.674996218519713 
C -3.53427745 1.05416321 -0.22192779 -49.70926845413047 -1.4200171457794342 -10.827625252145847 
C 0.84943088 -0.60098076 -0.33204125 75.17103772083415 58.6589017999302 47.50014432128283 
C 0.13537384 0.58465953 -0.4170129 -63.0642044572603 34.8989790238551 16.046422492187485 
C 0.38446186 -1.94261292 -0.26346834 22.25303475206757 -54.621155048367406 -34.66565094563085 
C -2.14707338 0.96107665 0.29911923 14.356271754541023 -20.609610106939325 27.729235795041532 
O -0.72935688 -2.35753696 -0.28805594 -65.91174499604382 -9.41032956566824 12.745391968035321 
O -1.83718994 1.12218464 1.46872345 -2.562176261394618 12.539061477577867 -12.896069505136131 
O 1.43877438 -2.81997772 -0.39255226 22.557769416251855 -14.013278945931921 15.937699303713583 
O -1.27264248 0.43930992 -0.60998149 27.859797063908687 16.324405033561625 -27.480227605118777 
21
Properties=species:S:1:pos:R:3:forces:R:3 energy=-406278.78079184995
H -1.04314071 -0.80247221 2.70745764 -8.133075787324948 -17.024690466780164 20.532421457556303 
H 2.22598781 -2.11075484 -0.03376593 -11.97517866770178 19.28134705045768 1.905447221036876 
H 0.67319369 2.11367865 -2.05096292 -4.0382661411811736 22.450753810084986 -10.565154435881617 
H 3.67579183 -1.07311389 -1.69166975 -34.071956594644526 10.447647870915922 -0.1418230113462285 
H 2.90515626 1.19417596 -2.80458588 -14.461761209020986 -13.906709208478551 26.457056144956425 
H -3.6857689 2.1967475 -0.10014866 -19.23429129968852 -3.9307489327116114 -7.418942335924812 
H -3.5563187 1.3510273 1.59484734 4.911418194923549 -9.610255436653283 -40.83858470196789 
H -2.50542536 2.60326204 1.10122408 2.5315299022676023 -19.109808549505974 -19.41822755968189 
C 1.88049172 -1.1171729 -0.44780472 75.22812670347817 -85.32083343291995 -13.931580619108873 
C 1.08829999 1.24494956 -1.57925248 -4.210080938436723 -0.9144957045303107 8.455795799322246 
C 2.64677458 -0.61176863 -1.45826511 54.80510316657125 51.143744315930476 -34.02094138740093 
C 2.30045717 0.69797441 -1.96163282 28.944200765451694 -31.62832923491552 -32.46349944053693 
C -3.03618459 1.70591878 0.62355677 22.635183371633723 27.113813645019285 46.50083869550333 
C 0.79184229 -0.53228199 0.01991665 -104.98458879775296 52.862712876650185 84.77936856992888 
C 0.31680206 0.68461651 -0.55772229 4.526973825811277 -13.486240781793164 -11.784731064341806 
C 0.24518409 -1.15358828 1.36242264 1.8281103440230353 63.511219859714785 -65.53798724620304 
C -2.06068985 0.74104171 -0.0707547 3.9304335043132292 28.04660656829785 34.853926124833556 
O 0.51956826 -2.27256986 1.60971817 3.7424856117193794 -67.71328346205578 34.14729180573179 
O -2.25145785 -0.40686259 -0.32959133 -8.250657059016575 -25.23144605901139 -10.52557054352676 
O -0.47564686 -0.29603814 2.12531667 6.785662906762577 17.038781578276303 -21.501075980924607 
O -0.84236502 1.38509786 -0.26997703 -0.5093741738293617 -4.019783934349659 10.515972507975992 
21
Properties=species:S:1:pos:R:3:forces:R:3 energy=-406278.0013613364
H -1.03396778 -3.04466449 1.11828634 -3.4063183890542152 -13.37129796193011 4.879274143814742 
H 2.16549231 -2.18812457 -0.15875205 -12.132409051905823 -42.54972565795932 14.260126569907865 
H 1.45032825 2.48932977 -1.0770341 -15.476710186046565 46.60001721037356 -7.879798641634615 
H 3.69320267 -1.03289387 -1.47882237 6.8809436278528 -6.709837951583088 -4.081674306411151 
H 3.39983838 1.36407278 -1.94036885 -13.54650064991565 0.8029277313657366 17.310615637524087 
H -3.38011687 2.24418864 0.9734873 11.760536757529064 -7.885138393807226 11.205276052482436 
H -2.5018611 3.11304868 -0.29867736 -5.570716909489163 0.527859938124016 -2.86618401727737 
H -3.90104972 1.86944431 -0.66270762 40.04317151857415 11.873284622634955 14.871719703770808 
C 1.86951733 -1.19507639 -0.35844878 -12.470101240436847 21.1895619778172 7.230558061185831 
C 1.4938319 1.46438672 -0.85811672 1.2867035862632423 9.628260943424086 15.063934180490142 
C 2.80250004 -0.53290989 -1.10592562 14.513170108852028 31.890003179436466 0.12813745064800505 
C 2.65267802 0.85305657 -1.26732692 28.67437430123572 -18.87883432605914 -42.66639740490825 
C -2.94019329 2.13101384 -0.03206638 -44.90860120167043 -4.0381653463922165 -37.865503660628306 
C 0.73468408 -0.5246038 0.17159126 -20.81262385592958 -53.325515114697374 17.235863850391723 