12
Properties=species:S:1:pos:R:3:forces:R:3 energy=-145428.7566334854
H -60.1536 66.8206 -54.3718 -15.412015347209984 18.45855800238329 -2.6323982121291634 
H -60.6893 64.7358 -53.5001 2.1475171720162742 -17.014342992327975 -7.426435539117955 
H -59.0275 62.8106 -53.7368 8.910389784085224 4.502230483853983 4.606280351583436 
H -56.6116 63.4466 -54.3581 6.353555646505311 -14.458053146608426 5.080041947742835 
H -56.133 65.7663 -55.0522 29.58599083226501 3.869025761417683 -12.005349512589131 
H -57.9516 67.3015 -55.2993 4.275532331101001 24.938823370996563 -0.7179624675594453 
C -59.3896 66.0675 -54.3954 -20.87783689856351 29.286358756044024 3.282755836003797 
C -59.6859 64.8258 -53.9605 -42.81450289615909 -16.567531551093495 29.81158972890784 
C -58.7177 63.8509 -53.969 2.9756981483893203 -40.76569346805757 8.597801427109642 
C -57.4109 64.1782 -54.3138 9.975088697297728 -1.017754629621715 -18.396310698186788 
C -57.1193 65.463 -54.7949 -0.07462609010142936 -35.55966514904517 26.42562951558078 
C -58.1326 66.3643 -54.7997 14.955208620374146 44.32804811952195 -36.62564000570376 
12
Properties=species:S:1:pos:R:3:forces:R:3 energy=-145427.30232211793
H -171.04 188.694 -157.226 0.40411121116928916 -8.229740361576493 -6.811879038459686 
H -169.29 190.29 -157.943 -18.069264811011678 40.270017898957946 -16.16756122701876 
H -167.002 189.705 -157.798 11.382091457091285 1.9391375827903832 9.716027116542325 
H -166.322 187.506 -156.836 37.55711548179961 -7.383530162011715 7.66648247939194 
H -168.095 185.921 -155.991 17.5599309550979 -28.951865912696586 9.368623053640063 
H -170.343 186.278 -156.562 -32.497493372478345 -17.282349221237492 8.549411627663114 
C -169.979 188.373 -157.18 -43.1215309382474 10.405915270824721 -11.892184238474854 
C -169.036 189.348 -157.562 -22.331980788241573 -52.59209428397511 40.031776964137855 
C -167.731 189.03 -157.327 44.85703695928228 -2.3170089458416334 -34.337019615716514 
C -167.344 187.775 -156.857 -33.10862877941732 2.2673906357908784 15.177797903200835 
C -168.327 186.854 -156.447 10.465971177727202 9.137755554087413 -22.471567341094016 
C -169.666 187.074 -156.733 26.902640261407722 52.73637075906665 1.1700899445456014 
12
Properties=species:S:1:pos:R:3:forces:R:3 energy=-145431.99916395
H -4.82981 2.46677 -2.23577 -10.295499915717391 -3.789795128192503 -2.191268039528704 
H -2.4782 2.41043 -2.91556 6.622160715043339 -13.564514457433779 -0.4861640984852557 
H -1.44857 4.2657 -4.05721 -5.524676221535847 0.288537534509472 -6.897089767222612 
H -2.88505 6.32639 -4.87011 14.429128599641 4.837476323565979 -0.47902071250084377 
H -5.33138 6.28496 -4.18638 -1.6367306853204726 19.619412772618364 -9.335895578576352 
H -6.32155 4.45306 -2.94924 -4.8100660700749955 0.22283356196227833 -4.166656171712094 
C -4.47358 3.24856 -2.91618 -15.386501221572436 23.85630512491756 -15.908844720187902 
C -3.12315 3.18656 -3.31124 -23.38643776507503 18.385363198285045 18.262879742386986 
C -2.55347 4.28163 -3.94067 27.331255278682903 40.074914762169215 -21.477596724202932 
C -3.26414 5.47289 -4.31416 -39.604884944843306 -46.241656161001174 21.333657022288616 
C -4.65351 5.46717 -3.98258 -1.5005035634929094 -28.29309133103355 6.458525711366886 
C -5.29433 4.37181 -3.32197 53.7627569800862 -15.395787386187962 14.887472150553167 
12
Properties=species:S:1:pos:R:3:forces:R:3 energy=-145426.13302572485
H -157.072 176.861 -145.692 -23.50282254333069 3.9727127679068914 4.541619901557206 
H -156.139 176.638 -147.767 31.368598851089857 -6.640055940456811 -3.48177099642509 
H -157.353 176.579 -149.82 -20.243492602101472 4.5938754776154855 -7.625774428684956 
H -159.952 177.01 -149.72 -13.544999400470719 -11.558037654873011 0.6555621924479375 
H -160.992 177.242 -147.442 -48.406195794140665 3.2604944174969304 1.610439846897432 
H -159.609 177.329 -145.408 -10.835965131566226 2.6391621353786796 12.728084909860936 
C -157.838 176.842 -146.512 35.194020786804884 4.9858984290362525 25.021821357686623 
C -157.202 176.655 -147.737 -46.8001138395893 8.575605228760336 -10.078336949999711 
C -157.975 176.69 -148.908 -22.360662241894463 -15.433466849942059 11.150572941784079 
C -159.432 176.764 -148.786 66.74810339435386 14.24332467149931 -9.558279714361989 
C -159.99 176.932 -147.504 13.654055804658702 14.286881064360108 -37.22250761381065 
C -159.213 177.084 -146.383 38.72947271618621 -22.926393746782114 12.258568553048184 
12
Properties=species:S:1:pos:R:3:forces:R:3 energy=-145434.30909960272
H -17.1093 18.0217 -12.847 -16.355502004686326 -1.0286048921976396 14.492050636012989 
H -17.5711 15.9921 -14.3547 -8.288936548220226 -0.8270485172735922 -3.5608972773981726 
H -15.7527 15.3597 -15.9022 -8.422099508463507 -30.759079718237338 -26.799114526580844 
H -13.5708 16.2816 -15.855 5.743306047888108 -2.0276057619681804 6.6558024581339374 
H -12.9497 17.9759 -14.0052 0.7977362068239443 6.746740702551697 -4.398339516144769 
H -14.9284 18.8345 -12.6 11.257167581479425 16.078270088034653 10.833715629040922 
C -16.3463 17.5113 -13.4123 30.223862946340528 9.751655109885894 -11.224932222150036 
C -16.5972 16.4816 -14.3075 3.141268412013742 -0.49259006273650535 -0.5219023731861532 
C -15.5536 16.0755 -15.1531 -19.718631605404177 3.358571304614915 18.120762647421213 
C -14.286 16.591 -15.0743 28.506035145467607 28.30840265238659 -8.691320018124692 
C -13.9806 17.6366 -14.1649 -16.301154640301935 -23.693854756466614 9.721251844073421 
C -15.0366 18.0576 -13.3399 -10.58305203293718 -5.414856148593887 -4.627077281097814 
12
Properties=species:S:1:pos:R:3:forces:R:3 energy=-145430.01495683377
H -130.745 143.812 -118.652 15.249240063792278 4.963188770173791 -3.8539219587477866 
H -128.687 144.478 -117.462 5.7442286166623235 -16.615550188552458 7.405377728973336 
H -126.482 143.564 -118.14 -1.3263953883333344 -4.524095838131302 -20.05698903954232 
H -126.243 142.848 -120.634 -18.141895164291764 -0.6429699587546323 1.9996820479640418 
H -128.339 142.333 -121.877 0.7112637644674894 -10.70299308851144 -37.138984308396964 
H -130.605 142.632 -120.827 -15.152622922382598 3.0291490320625227 -10.259752154448122 
C -129.733 143.631 -119.109 -44.167096628873836 -7.166256914936705 23.212059222716846 
C -128.583 143.804 -118.336 -2.6950569962288196 23.250001938743274 -5.965640379189789 
C -127.337 143.418 -118.85 0.6082408177643481 21.942095872167737 13.978951798276416 
C -127.267 143.034 -120.204 32.19185511265659 -7.654798584620292 12.43104385262666 
C -128.43 142.819 -120.941 -24.315510767730572 1.2354085252526668 32.888591383482805 
C -129.719 143.026 -120.351 51.2937494924979 -7.113179564893167 -14.64041937953617 
12
Properties=species:S:1:pos:R:3:forces:R:3 energy=-145432.02962347888
H -62.7006 67.287 -57.281 8.95653363846959 -6.898498522625912 -0.10724684127094916 
H -64.7225 68.5438 -57.9216 21.99181497700745 11.510597698084766 10.72944519859681 
H -64.4677 71.0407 -58.6526 2.213870974496977 -18.296226216036995 1.9966083998113864 
H -62.2357 72.0001 -58.9087 -5.740050969115331 -5.2400922143955695 -8.968377619082522 
H -60.2471 70.6965 -58.3597 25.46167202937786 12.119254739036453 -4.450440935466997 
H -60.4006 68.3657 -57.7081 47.21484526405149 -30.844732758250625 14.746220704951375 
C -62.5354 68.305 -57.65 -25.86368315147371 -0.42759165371200836 3.4577142448537472 
C -63.702 69.0455 -57.9113 -24.34772359646008 10.539930836400469 -28.316888387795693 
C -63.5979 70.3656 -58.4467 -30.359192401635855 -8.979399825710196 5.027946457525839 
C -62.3581 70.9235 -58.6789 25.334077684769174 24.323798471024904 24.342157352467574 
C -61.2087 70.2383 -58.2851 -14.233036488099453 -40.580382841471234 0.617640821200343 
C -61.2901 68.8894 -57.824 -30.62912796138811 52.77333991601387 -19.074777024148823 
12
Properties=species:S:1:pos:R:3:forces:R:3 energy=-145430.79814374208
H -171.545 189.382 -157.104 2.0295481368424277 -13.472580123336918 -3.2653954158823177 
H -169.516 190.575 -156.028 -14.394878530353521 -2.6994006587223285 4.907206158566207 
H -167.345 189.911 -156.342 -10.386892329595979 -12.911836181771049 -15.70323283728466 
H -166.739 187.883 -157.858 -2.0625092186523073 10.692084720704235 3.7788855745642516 
H -168.612 186.639 -158.971 -1.6231554059795783 2.9844803390600636 8.605337319860462 
H -170.824 187.349 -158.616 -28.624697885953687 -12.976831033332406 -8.118039576454708 
C -170.528 188.957 -157.21 41.787805990025355 13.340302971415408 8.372264193161234 
C -169.437 189.64 -156.604 -30.23255620043278 15.585790306655479 -7.77301071310868 
C -168.131 189.296 -156.882 45.78568188054002 21.43823813784692 33.90056394968155 
C -167.777 188.226 -157.671 1.9174501016700463 -43.63899241161423 -20.827687340683898 
C -168.821 187.452 -158.245 33.15608533770021 20.445899210715893 3.630200216821643 
C -170.113 187.874 -158.012 -37.351880689989166 1.2128459081999767 -7.507091529241086 
12
Properties=species:S:1:pos:R:3:forces:R:3 energy=-145430.64326047504
H -16.3291 15.3204 -14.1664 -18.601214645925243 12.188532776217945 13.055849404590253 
H -16.0822 16.6488 -11.8414 -13.738440016152184 0.425990795299167 18.71820300709359 
H -13.6817 16.6317 -10.8721 -1.8484092286978633 4.744645508757928 4.177321446204757 
H -11.8716 15.8074 -12.1072 14.603820198755477 7.41336897700603 -5.0911542767700455 
H -12.0955 14.9078 -14.497 -3.2767947136027944 4.663345617806519 0.444842978297205 
H -14.5425 14.7785 -15.3551 5.381365004776199 -6.784552978263007 -7.398696813197078 
C -15.4246 15.592 -13.6139 26.736969202994345 -8.83609928133997 -5.193360192772115 
C -15.2514 16.167 -12.3289 35.44950118799971 -4.426678267515198 -33.60415612088613 
C -13.8992 16.2634 -11.8805 -30.082955388842233 5.580138257703996 -1.0123093393759615 
C -12.8079 15.8678 -12.6657 6.1682153743928225 -10.323258800596061 33.65333804879176 
C -12.9456 15.3129 -13.9192 -42.0298083492051 -10.213200377623744 -20.880565472791616 
C -14.304 15.1803 -14.3676 21.23775255932791 5.5677689583674415 3.1306861449943373 
12
Properties=species:S:1:pos:R:3:forces:R:3 energy=-145435.25345778317
H -69.2808 79.5386 -67.5952 13.421725001934611 0.7556371880293575 -4.513298937502473 
H -71.271 80.0158 -69.0368 7.739800608879026 11.501136031954351 -17.864567196135322 
H -73.4185 80.3882 -68.0793 -17.45772503909583 -2.793408993829604 -5.011443386021014 
H -73.8735 79.8493 -65.6355 8.28783254882589 0.1517329178322395 -1.8811011291301758 
H -71.9644 79.4222 -64.1087 15.494772612227601 -1.2748477474398439 -15.699383662167559 
H -69.5626 79.2403 -65.2139 10.10593456321605 -4.23434876615435 14.013157992185173 
C -70.2606 79.6917 -67.1574 -4.13645923876172 -4.330919660543218 1.4124195903341938 
C -71.3409 80.0228 -67.9594 -11.917807459648687 -16.48606445937453 5.0688157798951545 
C -72.6292 80.0693 -67.4087 5.8019520135662415 6.542665643724779 0.6850666059071261 
C -72.8453 79.8095 -66.0573 14.752861302812049 4.579522299668055 23.289818252023256 
C -71.7137 79.5564 -65.1978 -40.79976447836702 -0.4938968375298025 -9.807318735631956 
C -70.4496 79.4661 -65.791 -1.293123621409259 6.082793569483609 10.307834826243598 
12
Properties=species:S:1:pos:R:3:forces:R:3 energy=-145430.64440069618
H -100.693 111.917 -90.7729 0.6766081443820913 -1.834091625381829 14.396814976122537 
H -102.379 110.951 -92.3979 26.08973266011423 13.519403453180956 -2.2392273859353367 
H -101.749 110.868 -94.7439 14.298547171816056 3.9909080060451414 1.818588201019246 
H -99.3712 111.318 -95.3671 16.549822499584334 -8.97074333207039 -71.03323613264774 
H -97.5541 111.606 -93.6987 -6.957195478609049 9.088060165668633 -9.281442676118816 
H -98.3538 112.299 -91.3974 13.760694319732771 -3.7359896840263835 7.507250429261324 
C -100.355 111.661 -91.7738 -0.9093812583565444 7.039505689092116 9.765845830349948 
C -101.315 111.243 -92.6947 -35.34847160647582 -11.17654360852455 26.56556944310509 
C -100.951 111.146 -94.0111 -27.601953321368093 -11.737668198646364 -27.14416829216885 
C -99.6349 111.354 -94.3756 -2.5349913139024793 -0.6425347624305489 18.8079044401598 
C -98.6378 111.639 -93.4715 19.947527084556416 -1.0907454724999532 33.84048669800023 
C -99.0144 111.853 -92.1355 -17.970938901473918 5.550439369593174 -3.0043867169684835 
12
Properties=species:S:1:pos:R:3:forces:R:3 energy=-145432.17739760384
H -20.7714 24.9639 -17.5856 1.3627443608732046 0.25400049652872886 -8.137835673005798 
H -22.7745 23.5218 -18.0304 -14.467996256083739 11.250336066430258 11.141041312211916 
H -22.707 21.623 -19.6896 -1.7511375140704855 14.849664618126042 8.29553327070218 
H -20.5429 21.198 -20.9709 -7.1437618896836685 -12.292095271497267 4.257696396739856 
H -18.5784 22.453 -20.3251 12.12709064451205 -0.7403033360764307 -6.8050202495264465 
H -18.57 24.4112 -18.9564 -19.8193920055505 1.34527247357335 2.4531044415330294 
C -20.7401 24.1767 -18.3663 22.95713022830867 23.995416163530333 1.8649241584131528 
C -21.8614 23.4184 -18.5946 -14.605130531011916 -54.30729430540888 -20.92905962449024 
C -21.8406 22.2953 -19.4891 7.051029498022481 -8.981747751382365 -14.307119472161562 
C -20.6538 21.9329 -20.1691 5.148063014614985 41.95979984625893 26.145654794848443 
C -19.5202 22.7325 -19.8596 -5.187344522602972 -5.1488361699373355 -26.12439302348381 
C -19.5602 23.8998 -19.099 14.328702601029802 -12.184211644324321 22.145473668219285 
12
Properties=species:S:1:pos:R:3:forces:R:3 energy=-145430.52898810763
H -98.1651 106.938 -90.3213 -13.178064864931791 -5.026096576693222 -1.1844205918931476 
H -97.8883 107.189 -87.7404 5.188290807798118 7.6732191287573865 -11.770680270761245 
H -95.4859 107.546 -86.8408 -17.036125339132035 -9.988742240827692 -25.312181499144646 
H -93.6368 106.867 -88.3461 36.88226235256641 0.9602351939378035 24.9198763223148 
H -93.9213 106.418 -90.6125 51.68221142331588 -15.186248063978542 -43.08378032523051 
H -96.2007 106.458 -91.6983 0.1770845859864132 6.544283103632272 1.5937541589514392 
C -97.1886 106.902 -89.8493 -0.1720567047490449 12.391991208100658 44.41711276668616 
C -97.0237 107.145 -88.445 -10.789451301015337 1.5363817650772995 -10.360678569540966 
C -95.7267 107.258 -87.9249 9.08436396146654 -7.6671192652939375 41.57151934606107 
C -94.6306 106.883 -88.6943 -20.610676160060176 15.141708625470157 -51.94257147811725 
C -94.7712 106.669 -90.0908 -61.27920700902664 9.043478037602572 63.69201250811375 
C -96.067 106.712 -90.6282 20.051368247781674 -15.423093287426848 -32.53996236743946 
12
Properties=species:S:1:pos:R:3:forces:R:3 energy=-145434.99155922237
H -153.022 174.33 -144.736 -1.5032890571312532 -5.666162459704855 -3.912220478859281 
H -152.74 172.054 -143.979 -15.977335372194485 -12.792527168814601 2.851154921333406 
H -154.82 170.601 -143.377 -6.71344521920669 3.13829674447109 -6.527340092519178 
H -157.131 171.538 -143.998 -20.730975333590493 -13.652395655193533 4.621109043770533 
H -157.308 173.899 -144.879 -19.20648616778903 3.3375846437330883 2.9407531879685647 
H -155.236 175.273 -145.14 -10.1867209936543 9.223976602382 -4.132172495678445 
C -153.908 173.679 -144.621 -37.09992099148155 6.632437040232733 2.9276190340569865 
C -153.802 172.354 -144.158 9.310241526055309 10.727890587204785 8.616173352583829 
C -154.962 171.595 -143.848 0.5222901366683746 11.920321400267373 -13.016969889937046 
C -156.258 172.138 -144.155 46.745257757975935 -5.281422821151994 15.992266044991586 
C -156.367 173.46 -144.579 20.3881841145593 8.463510751051095 -19.46122068754557 
C -155.215 174.233 -144.819 34.45219841396783 -16.05150966447718 9.100846874013573 
12
Properties=species:S:1:pos:R:3:forces:R:3 energy=-145435.82289874472
H -3.07773 2.1726 -4.20363 10.002554684377898 -0.8365659169931954 -6.612203375715465 
H -0.551268 2.51946 -3.86336 10.8886179576751 0.9421348214832775 -7.168521833135615 
H 0.386066 2.55212 -1.46238 5.4321051015369894 4.390591361426616 -9.89525922444404 
H -1.12909 2.31958 0.417081 8.727157901793502 5.095108989960287 10.63049791883066 
H -3.49751 1.85299 0.0770994 0.22398855166161713 7.75145841558765 -5.012540270489072 
H -4.45905 1.8478 -2.22836 -3.8790720373240473 0.8177208489214368 -0.9921657972582316 
C -2.57223 2.20184 -3.22896 -5.73639152536568 10.311522729698364 16.154370153696945 
C -1.20826 2.42176 -3.00343 7.430438870971105 -1.8418563815946327 7.857468445507049 
C -0.68667 2.47749 -1.68039 19.030199639366945 6.317016942597992 -36.888613610091724 
C -1.5126 2.38139 -0.597017 -16.6626130542479 -17.445514639779514 20.70820045457047 
C -2.85925 2.12147 -0.789496 -30.71036144636091 -6.0559940138316 -12.519944856486449 
C -3.39241 2.07421 -2.10453 -4.746623458263572 -9.445624343297728 23.738714366657568 
12
Properties=species:S:1:pos:R:3:forces:R:3 energy=-145430.86352726805
H -107.124 121.005 -102.578 -8.136919033336815 3.8610807604058035 4.94100798749809 
H -109.269 120.323 -103.649 6.009598765385366 -23.84745771408926 -31.418316770108525 
H -111.4 120.871 -102.715 9.565593858577104 17.62361903186596 7.867747142338537 
H -111.45 122.623 -100.972 -42.870939677227504 19.150139509120155 22.413500056086598 
H -109.421 123.657 -100.029 2.933969105761257 7.753917808438193 15.728737476353835 
H -107.13 122.633 -100.589 -37.9133218943304 -12.880151043407256 -24.473452644562546 
C -108.099 121.395 -102.201 27.617137759869152 1.7620826423301335 -6.9447253844835375 
C -109.276 121.014 -102.85 23.388265115307764 -1.828213510454085 22.56127233162336 
C -110.479 121.382 -102.312 -34.70478066852488 -11.423186085459442 -3.4953344175555183 
C -110.5 122.296 -101.263 10.397412933920963 -5.067066693851493 -18.24585490962168 
C -109.335 122.833 -100.724 -12.63881155819253 -3.8326649306673475 -0.8269797396528923 
C -108.123 122.302 -101.127 56.35279410696949 8.72790022576864 11.892400057905327 
12
Properties=species:S:1:pos:R:3:forces:R:3 energy=-145431.94877861204
H -32.7265 39.2211 -33.8698 -10.802331689222953 -1.8823213389870748 20.77695910213357 
H -32.4713 38.8079 -31.3443 18.437367380281458 4.109340697248188 15.9162501726236 
H -34.5069 38.507 -29.8981 7.664969371736544 -1.2855948435847189 34.72087937505283 
H -36.7092 38.4414 -30.9067 -48.49850247604614 -8.447160650461276 37.00251290743381 
H -36.9263 38.5483 -33.4505 -24.49201904468836 -6.941320892258895 -1.0413085930693204 
H -35.0355 38.9577 -34.7438 2.133182967205588 -2.6428500388334477 -13.19914994896048 
C -33.5739 39.0296 -33.1483 -14.877638136614134 -23.281058591952398 -7.89077578706252 
C -33.463 38.8171 -31.759 -3.354463620509669 8.296509201423488 -10.999449535969767 
C -34.5986 38.6269 -30.9479 6.6462127233304935 -6.253983439047627 -32.07825345639718 
C -35.87 38.4973 -31.5111 35.223059172592784 9.781273362165551 -33.60533601282744 
C -36.0054 38.5494 -32.8968 35.212918031002694 11.170315676388077 -7.690428949605953 
C -34.8577 38.7933 -33.6825 -3.2927534932472526 17.376849672079086 -1.9119004591721964 
12
Properties=species:S:1:pos:R:3:forces:R:3 energy=-145431.03556837855
H -146.186 166.527 -138.787 -21.01809462612829 -1.9165002590117604 1.4702983297952101 
H -148.285 167.845 -138.465 -8.435677159446495 20.209727533622033 -9.508188261713661 
H -150.441 166.729 -137.815 -12.539727909006027 4.009742401727481 8.190167141611056 
H -150.432 164.221 -137.429 -19.717519305262517 -12.825613947655413 13.016589241381107 
H -148.19 162.976 -137.571 -7.459850790388662 -22.158885304255758 3.0591835075295184 
H -146.249 164.178 -138.072 41.1241730995346 -21.88403451626555 -8.533235842767137 
C -147.179 166.049 -138.542 20.299963771980234 -7.845637508925629 0.5300276189971077 
C -148.373 166.772 -138.404 5.377225303502697 -14.96689370096684 23.68248273263021 
C -149.528 166.147 -137.876 20.985360036138303 -38.00181023246599 -20.441792712431695 
C -149.507 164.717 -137.641 11.868872182520745 47.37201279974006 -25.146898204213485 
C -148.316 164.008 -137.85 -8.219700014775363 15.887738291380376 10.319325432184659 
C -147.161 164.675 -138.239 -22.265024588669228 32.12015562889804 3.362041016997118 
12
Properties=species:S:1:pos:R:3:forces:R:3 energy=-145429.19270070244
H -144.046 162.449 -137.382 -19.269659598222887 4.197557482364117 23.10948807383244 
H -146.638 162.761 -137.123 13.17992423233278 -2.3779459177816995 30.40063684721275 
H -147.58 162.245 -134.781 -20.02493273919096 -2.8692884967772354 -0.6592346802291 
H -146.219 161.18 -132.962 -6.378698610155292 0.1408198067408479 -3.83041661396309 
H -143.727 160.851 -133.44 15.866662693920059 -17.479701860551526 32.31626197029215 
H -142.774 161.493 -135.474 -20.216044402336998 16.057707951087494 3.48765029717388 
C -144.615 162.312 -136.402 38.638699300893926 -16.775494917132047 18.04763662094367 
C -145.991 162.465 -136.221 -12.173443203400607 -10.454345388186832 -22.252744225911165 
C -146.544 162.026 -134.994 15.101583998718075 7.242578729134699 21.437395019082828 
C -145.767 161.471 -133.924 -27.92434604675654 10.045988937670897 -15.374264734193094 
C -144.408 161.3 -134.112 -9.309321328923188 23.17313820432701 -21.836567285593237 
C -143.858 161.788 -135.28 32.509575703121634 -10.901014530895724 -64.84584010282698 
12
Properties=species:S:1:pos:R:3:forces:R:3 energy=-145427.83090750576
H -20.8987 22.5399 -17.73 -12.48040602533136 -8.59246997568436 0.6958148878730472 
H -23.2175 22.8586 -18.6791 -23.62017850902347 -8.60052407223252 5.044923857449282 
H -23.6621 24.0349 -20.8117 -7.042970658190132 6.008332308507652 -2.9422923836869854 
H -21.6955 25.323 -21.8286 -1.6526942082491167 8.839378076533677 -18.883589468455796 
H -19.501 25.0195 -20.9165 12.861167234273053 -7.583036252346278 3.304131446188892 
H -19.0855 23.4944 -19.1186 49.79980114775031 -13.148261624568871 26.842662618694312 
C -21.1242 23.0175 -18.692 -41.23720200422853 -9.329240750863118 5.605899034119228 
C -22.3978 23.2467 -19.2567 -1.7514197394795639 -4.3050782482968195 12.472517943729716 
C -22.6403 23.9949 -20.4324 -6.480610442537816 -29.484748988773784 27.27609681270267 
C -21.5655 24.6016 -21.0395 28.83322807445249 4.057468141387944 19.182821922984097 
C -20.2867 24.4038 -20.4615 -24.52560979747396 9.497215859569941 -30.32334265975658 
C -20.0939 23.5327 -19.3817 27.296894928038096 52.64096552676654 -48.275644011841884 
12
Properties=species:S:1:pos:R:3:forces:R:3 energy=-145431.70048054538
H -104.222 116.739 -97.0596 5.9654779217064124 3.2076660898731673 9.239809684995524 
H -106.666 116.571 -96.5618 -7.504555058022517 -9.315219602808723 1.2607661225120732 
H -108.316 117.621 -98.3468 37.1725964059614 -3.4262757572676374 -0.6502354843068388 
H -107.303 118.993 -100.121 -9.834659025681194 -0.03070209271620332 3.0643442007241 
H -104.958 119.494 -100.331 -6.358117500071385 -6.687198256162372 13.853075708364182 
H -103.335 118.253 -98.7387 0.920199503764212 9.064686447020105 -2.5368755835454455 
C -104.922 117.353 -97.6334 -26.88395172171411 -6.014333748824236 4.909877813384082 
C -106.335 117.132 -97.434 47.33841374620713 16.23411187579319 -21.903982397910603 
C -107.16 117.709 -98.4055 -69.90891888049893 -16.700867641209573 46.85514898018069 
C -106.659 118.551 -99.3479 -11.449335811177946 29.015097448361725 -51.90851232601826 
C -105.325 118.851 -99.4865 34.473689048794434 11.272150430402576 -14.277259312388408 
C -104.428 118.232 -98.6196 6.069162556553528 -26.61911637828306 12.093841408187858 
12
Properties=species:S:1:pos:R:3:forces:R:3 energy=-145434.10747733418
H -140.705 157.738 -128.735 2.3875427675114214 16.64420792578441 39.38997622493512 
H -142.76 156.954 -129.576 -16.82339378666531 4.28273856560088 0.7915948396238666 
H -142.945 156.228 -132.015 -3.1350962134664537 -9.385479499816759 -0.20071799944413718 
H -140.712 155.886 -133.306 -12.644006640197464 6.427995562702431 12.758662491367252 
H -138.633 156.887 -132.344 6.909880033030692 -7.961794609540347 -13.10709228947478 
H -138.603 157.829 -130.087 4.7624885580453515 5.7238123357038875 4.171369810372126 
C -140.714 157.449 -129.749 -5.328495173415806 -0.9841152581732097 -12.846431036127584 
C -141.93 157.008 -130.273 8.0056581300522 -10.396078885243595 6.479298924460333 
C -141.983 156.471 -131.552 5.237337552104435 3.747132844400806 -16.388948087304247 
C -140.787 156.362 -132.291 18.841439459356213 -4.082365640081289 -23.2172981801005 
C -139.569 156.86 -131.796 -15.842492103528247 26.031472086276224 41.390944888734666 
C -139.554 157.483 -130.495 7.629137417172969 -30.04752424179239 -39.22135840122106 
12
Properties=species:S:1:pos:R:3:forces:R:3 energy=-145433.00478877762
H -26.7544 33.0675 -26.8073 7.9615384721942934 0.12760501699810448 6.927832177854399 
H -28.4494 32.9549 -24.8008 7.864100742620399 3.573302151366123 25.585349607069794 
H -30.8321 32.4485 -25.3767 -19.183189527508528 0.4273805775657226 28.80479920068252 
H -31.6372 32.0905 -27.6895 -8.508270752274138 -3.2994047634973467 5.23330220308303 
H -29.9959 32.1439 -29.519 1.4694801132730912 0.9094761240402682 -21.3399513604037 
H -27.6861 32.6697 -29.114 17.415501509091357 2.0146933565923066 2.5980473480527286 
C -27.8103 32.8221 -26.9184 -36.43155074590983 1.2190939992942442 24.601635156410318 
C -28.7454 32.7742 -25.81 -2.0836950974699535 -7.999069708317572 -78.88594706411602 
C -30.1035 32.5046 -26.1506 13.621138598227546 -2.248209980362946 -5.509427748698272 
C -30.5888 32.2658 -27.449 51.42038450787992 14.699698573653158 -23.646845252718265 
C -29.6304 32.3556 -28.5279 -42.9132960191892 -10.640265526791085 56.66428202201387 
C -28.3065 32.6167 -28.2139 9.367855827422945 1.2157001794590205 -21.033075103409345 
12
Properties=species:S:1:pos:R:3:forces:R:3 energy=-145432.58571382498
H -112.658 128.21 -106.17 21.476855586048842 1.5893761076475799 16.9272586663115 
H -112.995 127.549 -108.459 -0.2440063967484129 1.4412848462492927 -4.000989856582902 
H -115.295 127.535 -109.327 -7.160098946241975 -4.205230930356337 -28.424430498507235 
H -117.258 127.925 -107.882 -17.353264877284275 3.7840047640222036 -10.032025894847784 
H -116.961 128.581 -105.461 24.678238010196342 4.37790307622854 -14.297849909040686 
H -114.447 128.8 -104.684 -5.274676685218174 2.2481139288581757 22.82531080331113 
C -113.673 128.198 -106.514 10.79885130445133 -7.410304815421748 -12.471283504020258 
C -113.855 127.846 -107.845 15.888238707862019 8.656571903997664 9.652915348802889 
C -115.135 127.886 -108.329 -34.43482376399379 -15.420052842263495 -6.829219299623374 
C -116.262 128.126 -107.524 28.37999066896676 11.612370789404844 43.62847417893134 
C -116.052 128.492 -106.145 -27.74573412326217 -23.365549527340068 -18.04903826142069 
C -114.732 128.486 -105.675 -9.009569484776499 16.691511513152303 1.0708794125071157 
12
Properties=species:S:1:pos:R:3:forces:R:3 energy=-145434.45054410928
H -177.43 197.421 -163.114 -21.18388545246737 18.816493341999955 -1.9737706722758968 
H -177.88 195.01 -162.748 -6.259415685261869 -7.191101051682955 4.0053738369919945 
H -175.991 193.452 -162.857 0.6675105253129665 -27.618494339146405 2.5460988996455045 
H -173.664 194.152 -163.751 -11.06741486925273 -0.707488110255277 4.28661501460205 
H -173.388 196.558 -164.357 -4.721531484918591 -2.171921369154255 8.3507474702716 
H -175.132 198.197 -163.909 -5.077550537724035 -0.29617540787029495 3.749600537998674 
C -176.673 196.699 -163.336 43.83434338500168 -7.661491358607016 12.028250088640085 
C -176.89 195.345 -163.051 29.746285378053337 13.686332667724722 -13.619141675585157 
C -175.784 194.456 -163.172 -30.11383891217856 -2.0161697037952604 11.256550954535221 
C -174.529 194.832 -163.599 15.221651937144316 35.064264690428345 -16.421510733242485 
C -174.349 196.22 -163.908 28.392312535461453 -27.726561768581565 -2.5039880226404527 
C -175.344 197.139 -163.674 -39.43846563334955 7.822311223118961 -11.704826884762188 
12
Properties=species:S:1:pos:R:3:forces:R:3 energy=-145430.10950496196
H -125.11 136.014 -115.384 11.92499827847496 -10.619309697256469 -4.285132738293862 
H -122.662 136.215 -116.098 18.317087179887885 -19.76972982012103 -6.5945856324268854 
H -121.565 138.532 -116.001 -13.62062869517753 -14.884544358389237 7.8516697805894236 
H -122.896 140.415 -115.365 16.326065183026795 30.138244295137586 -7.457366495296142 
H -125.343 140.232 -114.874 -9.591010746888838 16.154400985044155 7.375598205031347 
H -126.326 138.0 -114.798 -25.41453445695648 -11.622220219017482 10.483788138951603 
C -124.52 136.941 -115.376 -29.62530079995811 -0.1566528893543718 6.294923910679736 
C -123.185 137.086 -115.765 -32.09945000760425 -41.370849965279845 11.608624780718797 
C -122.623 138.303 -115.678 47.95610555771248 79.11525876645561 -29.10789980346466 
C -123.384 139.475 -115.456 -18.167447236202808 -27.40928704683002 33.80046168021605 
C -124.719 139.37 -115.037 10.835539421810516 -48.48125352310304 -17.27196617215391 
C -125.274 138.043 -114.985 23.15857750769643 48.90594584435623 -12.698116840372546 
12
Properties=species:S:1:pos:R:3:forces:R:3 energy=-145432.58318221458
H -106.512 120.267 -101.053 -16.13617017227451 11.450015286637617 6.539645357519217 
H -108.639 118.928 -100.641 8.22331202568315 -17.953091108902306 0.4200012131930474 
H -110.797 119.948 -100.79 -22.456615323518076 -11.154168351197216 0.2610834056397668 
H -111.09 122.211 -101.718 -11.175992201737905 16.686467030420282 -0.6294765010659499 
H -109.024 123.649 -102.058 0.6692216650831367 2.6131997693855333 0.28736120003129534 
H -106.771 122.814 -101.679 -25.145654277935655 -28.559501444814416 13.322222757918675 
C -107.531 120.756 -101.062 35.81355062093238 -2.692863227292703 -25.515015003335826 
C -108.662 119.955 -100.975 -34.99753498267589 25.720669575796745 26.214210667012583 
C -109.953 120.562 -101.037 36.29287608944219 -2.0706190487896565 -15.217556111249536 
C -110.084 121.885 -101.491 -6.365251399487425 -38.03026756594108 14.633353071919784 
C -108.932 122.621 -101.676 -1.8318456803196652 35.07804393098924 -13.567563203344456 
C -107.665 122.113 -101.441 37.11010482262931 8.912115153707953 -6.748266854238605 
12
Properties=species:S:1:pos:R:3:forces:R:3 energy=-145427.4902059607
H -71.8849 82.5209 -69.0386 16.208202871747137 -4.494521461230367 -1.0903826112597093 
H -72.8137 83.179 -71.1632 -1.708074422765054 3.9415351609510223 -18.711466357728145 
H -75.4078 83.6624 -71.3024 15.764404601791941 -12.707193114662832 18.08302270679374 