12
Properties=species:S:1:pos:R:3:forces:R:3 energy=-145433.63937187984
H -117.732 130.65 -112.045 -0.1606313189655441 -10.779842593075148 -2.882168884984852 
H -116.327 132.454 -111.159 -6.778525449883399 0.2790118340425429 1.5013431247938662 
H -117.231 134.206 -109.665 1.6644101201890222 10.003642082277583 -1.916348473917802 
H -119.694 134.026 -108.964 -8.240294168890781 19.89399556505205 17.646245683255163 
H -121.043 132.287 -109.715 8.074875690360319 -7.994072658427414 -15.089228929234082 
H -120.146 130.468 -111.343 -2.7852339435346933 3.9305224408917208 5.337220444676315 
C -118.204 131.353 -111.36 40.257339100328245 30.46439370160151 13.456845463870257 
C -117.397 132.422 -110.857 10.03268995463385 -7.638644144503154 -29.144360243182906 
C -117.917 133.471 -110.093 6.201398204738408 -24.126551369784018 21.97021168918142 
C -119.23 133.327 -109.625 10.793664523193724 -2.2296696683001507 -34.29513641635239 
C -120.011 132.303 -110.157 -41.050181423693076 5.126159714064176 46.543740515146425 
C -119.515 131.288 -110.952 -18.009508916833976 -16.928947275481782 -23.128362787430362 
12
Properties=species:S:1:pos:R:3:forces:R:3 energy=-145430.09893579478
H -102.395 113.651 -93.9127 6.809159950799949 -19.870041979911754 35.61274961401499 
H -104.718 113.873 -94.4073 -32.990468827054976 -15.446582030716892 12.107876786094815 
H -105.507 114.887 -96.5613 45.65045322003365 16.85085977374548 -3.2174526709703364 
H -103.634 115.849 -98.0593 5.716636932551219 9.936478364022086 -2.839065475763838 
H -101.246 115.829 -97.3664 11.545639895831338 9.045930315526837 -5.070045476320425 
H -100.693 114.7 -95.1153 22.982485453925985 2.011055257621494 0.33716331234426533 
C -102.701 114.199 -94.7615 1.1556691747985175 15.502283602736444 -16.145445664500617 
C -104.044 114.28 -95.1178 30.906712066890606 22.077459716273413 -11.990787630137506 
C -104.368 114.979 -96.294 -52.018350186275924 -31.40973972647884 17.03587275924912 
C -103.331 115.505 -97.0609 -35.76999422807159 5.315901753901454 -31.860284132367852 
C -102.003 115.47 -96.6802 2.5715561058728214 -5.433593306950408 -1.3543380754742178 
C -101.691 114.817 -95.4998 -6.55949955930159 -8.58001292559036 7.383757839652652 
12
Properties=species:S:1:pos:R:3:forces:R:3 energy=-145432.75633570357
H -136.565 151.141 -125.65 -45.70871260805061 20.920783779406374 -4.271183925323306 
H -136.486 149.294 -123.844 -3.0882112209279944 4.422909728229266 -7.867590613960392 
H -134.533 148.105 -123.543 15.712698060878212 -2.020271458795274 -3.759611239273642 
H -132.302 148.906 -124.601 -8.175268485982214 -2.6736220949913974 -10.627317546783814 
H -132.403 150.795 -126.163 18.44329411387211 5.723380696842944 -17.3620008209342 
H -134.63 151.8 -126.868 1.5402190819839325 13.728645134307689 -10.693699808969633 
C -135.688 150.605 -125.449 10.537317286813877 -17.742478618645766 11.570276513894441 
C -135.636 149.578 -124.49 -17.709484333846582 9.223590024720826 -9.208416258609184 
C -134.455 148.895 -124.313 0.07898872573168358 -19.630107692637196 22.267395044941278 
C -133.284 149.286 -124.967 14.779747423400458 0.3987453709336544 17.218747709405832 
C -133.334 150.357 -125.854 -16.4002169447096 8.439037776292414 3.0159117117198946 
C -134.567 150.996 -126.151 29.989630086657773 -20.790612645663536 9.717488048071676 
12
Properties=species:S:1:pos:R:3:forces:R:3 energy=-145431.72267547704
H -167.785 186.444 -155.173 -1.2663762418832971 -10.651007879651772 2.5572302018094613 
H -165.559 187.379 -155.363 -4.433969881130429 -0.7762123690080313 -3.5692490150290186 
H -163.628 185.917 -154.744 6.4597233906239 0.07224021815577253 3.4647236330598994 
H -164.034 183.683 -153.829 3.9152502516332146 -11.469503069716607 3.5904787692253874 
H -166.314 182.701 -153.567 -3.0548018987625194 18.4107729716705 -6.158695603031125 
H -168.306 184.164 -154.31 -11.122184385929692 -0.9331581561609007 3.307801562327961 
C -166.965 185.756 -154.855 -42.5164550768563 75.22180864894214 -25.736214503895958 
C -165.7 186.349 -155.007 -29.115915953739332 2.350796544920957 1.7268293684372749 
C -164.661 185.575 -154.621 34.044795363573314 -52.28117081974888 16.71446545115035 
C -164.918 184.25 -154.115 17.145051303004898 32.13434397772001 -7.681055034232982 
C -166.212 183.752 -153.968 29.890185947873118 -46.39602753066199 19.840861295598277 
C -167.285 184.532 -154.333 0.05469718159312481 -5.682882536461198 -8.057174939598479 
12
Properties=species:S:1:pos:R:3:forces:R:3 energy=-145433.50574988005
H -83.8131 90.9871 -79.06 4.030145638654405 -4.9848608356205215 5.279406925372858 
H -81.4789 91.8596 -79.0279 -13.553482764237732 16.847652127814566 21.347520456143823 
H -81.0597 93.9321 -77.5944 8.310130727785198 5.58083789212146 8.578613656755433 
H -82.9277 94.8738 -76.1225 5.468695981570356 16.89166387595723 0.3076529697798439 
H -85.217 94.0246 -76.3926 -0.7588282324656211 -8.864340795384582 10.793887457550477 
H -85.5644 91.8739 -77.5249 -8.158136929322719 -8.297925071753069 -5.5260482164867035 
C -83.5412 91.7751 -78.3376 -5.688773695420454 -8.165288616054456 0.6013393392734323 
C -82.2498 92.3176 -78.3202 -3.191924315480227 -8.728482463902495 -18.450111399068717 
C -82.0389 93.4574 -77.5175 5.660306875376996 -1.498768707301808 -10.6877327574634 
C -83.0891 94.0423 -76.7993 -8.595779602225276 -21.293353336558503 5.836111960454182 
C -84.377 93.438 -76.7976 26.20754635273098 48.51259240172124 10.709502060235948 
C -84.5622 92.3005 -77.5161 -9.72990122278695 -25.999726471039057 -28.790141266726124 
12
Properties=species:S:1:pos:R:3:forces:R:3 energy=-145432.64162057926
H -7.94953 6.82601 -4.06415 -2.4177230989671434 -7.784433727250088 15.749081422228434 
H -5.60006 6.08225 -3.55282 8.030898331027998 2.7109956169154863 11.905914860372846 
H -3.82126 6.48836 -5.49965 20.657189990611066 -4.246872222226956 15.28829389413933 
H -4.60153 7.28365 -7.59179 6.948802237241574 -6.867377835080277 -4.360988524820564 
H -6.94024 7.58306 -8.12185 -0.5312371564645878 2.697985974213796 -5.548086700636819 
H -8.6805 7.27175 -6.20466 -16.65209007828082 10.654336479329436 -10.565093959008243 
C -7.1626 6.86755 -4.81373 -0.1320150854702207 -8.295592561754507 18.17787771812825 
C -5.82509 6.54 -4.51217 2.24548022031379 10.357470923610048 -24.6445618782954 
C -4.86734 6.73188 -5.54359 -26.754584574640834 -20.937155224775033 21.803720042603825 
C -5.32719 7.0676 -6.79927 23.625863335120627 27.52704263421549 -26.29107440142885 
C -6.63793 7.3399 -7.09928 -48.10058717984508 -3.711018664428152 6.566803031127286 
C -7.61189 7.22086 -6.07327 33.08000305935363 -2.105380206948198 -18.0818855044101 
12
Properties=species:S:1:pos:R:3:forces:R:3 energy=-145429.41328046517
H -55.9513 59.3203 -49.147 -7.10649153419063 4.238209799481915 4.648093587505804 
H -55.2854 58.8321 -51.4905 -0.6006148026139907 -3.3070509376054953 -0.9773857237340434 
H -52.9086 59.1523 -52.1594 4.586844744630496 -10.53224671601883 -28.369755847513996 
H -51.1527 59.7939 -50.6122 -10.81520851996743 14.618723597668508 4.5947185963795825 
H -51.9253 60.8693 -48.4696 12.538039299835742 5.912196610442868 30.46379841943614 
H -54.2444 60.566 -47.6272 -13.090298691813553 -0.39352420086569856 1.4926131102491713 
C -54.9285 59.555 -49.4516 -20.190402208026423 -9.799150800263325 -43.019670096169875 
C -54.5422 59.2258 -50.7855 -4.966768763913323 0.27963676173407437 23.18691032996163 
C -53.2162 59.3877 -51.1641 10.826460775878134 12.044143648126985 5.704772792980495 
C -52.2226 59.9174 -50.3108 -19.264719467742964 -27.781292153163996 27.48344948090225 
C -52.6453 60.27 -48.9898 -22.15387283869199 12.321376750599704 -57.46489740233883 
C -54.0454 60.212 -48.6472 70.23703200661593 2.3989776398632947 32.25735393816273 
12
Properties=species:S:1:pos:R:3:forces:R:3 energy=-145434.81609563067
H -14.3181 13.6751 -10.8542 -5.382429872076 1.6003651112859505 3.8165887547392803 
H -13.1548 11.9818 -9.2977 -14.788775079027836 -5.863202042262597 3.9556523605101894 
H -10.6904 11.5218 -9.72475 -8.940066141596162 3.485161258797174 6.077203609070177 
H -9.53071 12.7814 -11.375 29.63499488701365 -4.3800565272490735 0.2718506607424328 
H -10.5664 14.3875 -12.9087 5.587101398889333 9.452321860568638 -4.8286182403482565 
H -13.1399 14.8499 -12.5405 -1.3680426093091862 15.395147042822824 -13.912123667377095 
C -13.2378 13.5041 -10.9127 -0.37104814874940656 -3.891434221734322 -0.5127561354541197 
C -12.6437 12.5236 -10.0857 16.895670765273525 20.796947301694203 -11.797332784603483 
C -11.2657 12.3129 -10.2439 6.995544931254447 -4.928702722498049 0.8034198471000543 
C -10.5461 13.0499 -11.1797 -16.70740388681815 14.966414629264037 -32.103589708877756 
C -11.1414 13.9851 -12.0785 -22.492775750511544 -18.90972496432174 28.953564008435247 
C -12.527 14.2257 -11.9087 10.937231877299427 -27.72323791218809 19.27614129606333 
12
Properties=species:S:1:pos:R:3:forces:R:3 energy=-145432.4807803259
H -102.345 116.029 -95.7657 4.828760538873843 -2.594831401374487 9.175572573082912 
H -104.314 114.758 -94.7073 19.05822177651795 3.4165603254332604 -2.632555926328355 
H -103.888 112.397 -94.0168 -4.260765301608325 5.1578994001961105 -2.676079116199847 
H -101.73 111.257 -94.3655 -5.17044182940546 36.234391395426385 -1.7971200967925205 
H -99.7129 112.65 -95.0479 26.861089091936645 -15.921640915101214 -9.318499583823478 
H -100.129 114.973 -96.0223 6.012620237411972 6.734373774857235 8.009519163379762 
C -102.17 115.036 -95.2952 5.5762843393027115 21.7980589329276 -24.872097220707243 
C -103.27 114.352 -94.7901 -18.434975579230567 -0.8129657065247747 5.659546764086158 
C -103.082 113.025 -94.433 5.477315714757721 -33.30700003901034 8.874758233278516 
C -101.84 112.388 -94.5869 35.87525363326852 -26.444799498619297 -4.873558486370375 
C -100.683 113.085 -95.0922 -67.98392339950969 23.669862039231784 24.970329450382327 
C -100.892 114.447 -95.433 -7.839439222315315 -17.929908307442272 -10.519816939808905 
12
Properties=species:S:1:pos:R:3:forces:R:3 energy=-145429.5460912151
H -98.7699 108.872 -88.7178 -34.906057189681945 15.654023635494962 36.60679730927409 
H -99.3845 107.379 -90.601 -3.461206487835835 7.4637699289475075 9.26745235941163 
H -97.5656 106.64 -92.2048 -21.85894372874162 -14.123723946565413 -13.05705657041564 
H -95.3323 107.481 -92.0203 -8.158266183816792 6.904505892047732 9.314662266916844 
H -94.7795 109.006 -90.1892 27.52449904807064 13.45118435419403 0.1724385391260337 
H -96.3569 109.703 -88.4635 3.916478762237439 8.835773180552168 14.735987069319656 
C -98.0441 108.64 -89.4305 73.20545039960048 7.711716809033604 6.388400997958157 
C -98.3724 107.8 -90.4572 -25.535323374579026 -36.78808325922843 -46.30559918929425 
C -97.4506 107.362 -91.4179 58.353408210276115 23.168536032845356 21.07857624278648 
C -96.1042 107.835 -91.2901 -34.39604860159268 -29.590252673106306 -44.34610224495567 
C -95.8056 108.726 -90.3021 26.227378023913463 1.4562653235303478 34.30688434546056 
C -96.6667 109.052 -89.2653 -60.9113676920292 -4.143715277745555 -28.16243993976686 
12
Properties=species:S:1:pos:R:3:forces:R:3 energy=-145432.7879117814
H -36.572 43.9943 -36.5157 -1.708739668372168 -13.142907642543703 6.7730516999325285 
H -35.2483 42.2095 -35.0548 -32.70905096210899 -2.433831292063467 -3.9869781950968775 
H -36.5455 40.474 -33.8771 -14.930777149352094 10.932616661786257 -9.45222225160073 
H -38.9841 40.28 -33.9428 -10.562584761673744 13.032878865097551 -1.68840995235013 
H -40.2735 42.0525 -35.2555 -33.44406909378095 5.266372380429192 -7.6033730832945965 
H -39.0904 43.7744 -36.5893 6.2877793388742775 1.365796664247022 6.631079275134435 
C -37.0775 43.172 -35.9512 -5.545179067430682 -10.8193422921357 21.395630401823365 
C -36.394 42.1925 -35.1466 13.958729991969616 22.704829013339644 -16.58073685426787 
C -37.1493 41.225 -34.4727 26.559457721431176 -17.483816659583052 25.13164024480754 
C -38.5666 41.1726 -34.4522 49.70752292554995 -26.504962129415965 0.18717117980836 
C -39.2111 42.0969 -35.2309 14.747383995398039 27.896479252162635 -8.844377498065928 
C -38.4865 43.1122 -35.9325 -12.360473270504428 -10.814114007141464 -11.9624749668301 
12
Properties=species:S:1:pos:R:3:forces:R:3 energy=-145433.21366743455
H -110.981 126.088 -106.368 6.5072653280221475 5.4064925527525745 7.433637030333648 
H -111.668 128.127 -104.871 15.650154301420073 8.511024228744226 -2.6079003351285053 
H -113.916 128.122 -103.857 9.243076621978767 -8.313922983492063 -8.506916544638978 
H -115.625 126.512 -104.612 5.186897468068422 -0.449056200475594 -1.5683479430291243 
H -115.044 124.659 -106.212 11.22598523123937 0.8931023070295179 5.229684263070007 
H -112.555 124.394 -106.903 2.5947092618066927 -14.014994828986278 -6.1457843834762995 
C -111.955 126.179 -105.863 3.02869960588588 -1.175124940709249 -30.81988387822019 
C -112.34 127.327 -105.153 13.335683012618054 -28.900650301696132 17.989374861284617 
C -113.579 127.301 -104.545 -52.663058558684796 25.797918702053142 1.1726145575537046 
C -114.585 126.409 -104.979 12.606275000317318 -26.284890344671098 0.7521911920680857 
C -114.228 125.311 -105.82 -6.50706848172842 15.707159090769782 0.7119171518641378 
C -112.877 125.176 -106.228 -20.208619976764552 22.822943904502214 16.35941521413994 
12
Properties=species:S:1:pos:R:3:forces:R:3 energy=-145428.64196762812
H -163.679 181.701 -153.851 -11.129761782417143 0.05208126036443745 -14.216400604637414 
H -161.373 182.192 -153.333 45.10565264243863 18.63700153928905 -53.464734063025375 
H -160.402 181.947 -151.029 9.704570899411616 -0.9071364991154269 -6.825881213377338 
H -161.762 181.36 -149.282 -9.423348694938303 -5.93466199016974 18.971429162478923 
H -164.357 180.982 -149.69 4.517954470931225 1.38831540592099 4.6969138399922326 
H -165.121 181.264 -151.989 -47.13009463385462 -8.555515048589703 2.8749887385479966 
C -163.308 181.568 -152.847 36.05056778843244 12.907535208835215 5.436613593155969 
C -161.965 181.808 -152.586 -7.834700681413306 -15.450988541725868 47.26789296856886 
C -161.431 181.682 -151.278 -0.18604820727727797 14.971226691070932 -37.72611039660646 
C -162.271 181.376 -150.242 9.311461735912209 -3.480301764148415 20.053942665273734 
C -163.624 181.202 -150.482 -11.266075469181105 -8.385200314958038 39.23661754644806 
C -164.097 181.32 -151.752 -17.72017925386541 -5.242357132594479 -26.30527105099814 
12
Properties=species:S:1:pos:R:3:forces:R:3 energy=-145433.80440547658
H -142.372 161.597 -133.821 -18.928000838291155 -3.9816823183029895 4.820889058766849 
H -144.774 160.895 -132.891 -14.509447816586913 16.7436070033693 -1.984216569874948 
H -145.115 158.46 -132.269 12.337917768378018 15.583747136992274 -1.6137435443331178 
H -143.243 156.926 -132.381 -2.5606750119496864 -3.13409063721898 2.4302904304184714 
H -141.028 157.642 -133.128 18.470018962798186 -11.453069961653528 5.209613056036117 
H -140.546 159.966 -133.766 -35.32588883046534 -0.7121389003998425 11.237813796178699 
C -142.684 160.593 -133.446 29.39089599622361 19.034365428703474 7.9216012051675655 
C -143.936 160.224 -132.937 12.035796653780325 -11.70847091283823 -9.232448107938549 
C -144.114 158.89 -132.555 -31.267971262900748 -12.222391524560063 7.191485257702038 
C -143.068 157.984 -132.612 -0.47492251496397 -19.368520313052645 7.368912545970903 
C -141.794 158.384 -132.98 -7.14602917952467 -0.9657955088250721 -8.718181236471123 
C -141.604 159.694 -133.383 37.9783048876813 12.18443932196526 -24.632017077443955 
12
Properties=species:S:1:pos:R:3:forces:R:3 energy=-145432.13921281465
H -61.3368 65.3013 -57.201 -37.781012725240636 -40.96660949961648 -27.456654668534423 
H -62.5973 67.0198 -55.969 -28.976579609127718 6.392366383537817 1.0191965880143188 
H -61.3699 68.8856 -54.7426 2.61226297075876 2.4365527513652965 -1.8398559014891045 
H -58.8387 69.014 -55.0388 -0.5247198839927538 -14.862823674279596 6.348249097322004 
H -57.6137 66.9099 -55.949 -2.7366046082367608 6.047703938895174 -3.31178473522332 
H -58.9306 65.1521 -57.1429 -8.622690625055663 8.71119319304381 9.262439893847867 
C -60.8656 66.0239 -56.6274 27.949015867808946 34.971856027912864 17.146546623344598 
C -61.5302 67.0645 -55.9921 30.103081143644264 28.3825722013851 36.39165261097764 
C -60.8059 68.1047 -55.2736 -4.218526355930245 -38.07940680428902 -35.18225625620207 
C -59.3866 68.0921 -55.3511 -6.948747689473433 4.787418073906955 -6.259229511357561 
C -58.7138 67.0074 -55.976 -23.35783220396913 -13.947467063669492 -2.764502234177875 
C -59.4848 65.966 -56.6044 52.50235371881437 16.126646843449674 6.646199679298983 
12
Properties=species:S:1:pos:R:3:forces:R:3 energy=-145433.343721413
H -20.4974 20.9338 -20.3668 2.259062614580964 -8.928051402752526 -2.446460286209215 
H -21.9453 21.7876 -18.552 5.088245457742861 -3.7305598094542347 -4.960888277343485 
H -21.169 22.7334 -16.5664 -3.50422688958359 7.376587179784169 11.582661228904602 
H -18.5288 22.9098 -16.1619 -14.20450207625634 -9.211239698521018 2.4384548083239617 
H -17.0958 21.7534 -17.6568 -16.63183032570053 0.6527838137358728 -14.392990703247415 
H -17.9532 20.8785 -19.8673 8.1056026853185 -5.400174498216561 -11.22888574951923 
C -20.0565 21.2019 -19.401 26.153982816058353 14.051234705989865 -8.154798843076682 
C -20.842 21.7455 -18.4226 -60.70234183033295 12.017946489566622 24.574306724571546 
C -20.4032 22.3229 -17.2159 -7.1738331256031085 -7.109850965215503 -16.537194691259632 
C -19.0479 22.3525 -16.9755 33.71520233279022 8.262965881479754 1.5241915247187747 
C -18.1902 21.775 -17.9343 18.289592733102598 0.26536896290199535 3.496879542379172 
C -18.6741 21.265 -19.1558 8.605046793704059 -8.247011845119482 14.104724721757604 
12
Properties=species:S:1:pos:R:3:forces:R:3 energy=-145432.1582096957
H -72.4933 82.7248 -70.2128 -23.910377378819156 10.278376659805224 7.49842436321186 
H -73.1609 85.2845 -70.0613 -5.762549551831508 -22.586232678832175 -11.486561105471216 
H -75.3857 85.8631 -69.5556 -4.306707566414778 -9.466244585476174 -2.7317320695564904 
H -77.1727 84.1991 -69.0266 21.665781781006093 -9.93294817476651 -3.3578621836290785 
H -76.5841 81.7221 -69.245 -11.779422143516406 -11.86642346205962 8.777045393221822 
H -74.114 81.1202 -69.5485 -6.824467714689852 -20.702389931442376 -7.642193306895474 
C -73.5579 83.0721 -69.9881 51.740904821835876 -0.19774514608043853 -19.85506506009384 
C -73.8907 84.4228 -70.0209 21.343907259414987 21.989929521543438 12.060160533002724 
C -75.1814 84.772 -69.6628 1.2213506167458268 47.753847176728875 10.429880714175479 
C -76.1271 83.845 -69.2943 -49.780525626638656 -11.116008629919266 -6.66751244096861 
C -75.8286 82.4776 -69.3964 9.614456800621207 10.460403747913652 -0.7232796891321716 
C -74.5138 82.1136 -69.714 -3.2223501118925846 -4.614564497414628 13.698694852134997 
12
Properties=species:S:1:pos:R:3:forces:R:3 energy=-145434.00387366445
H -120.865 132.56 -112.368 -3.4233064613670785 2.2973432896056623 7.097850456224426 
H -118.919 133.768 -113.1 18.027570157193963 0.6627719844109561 -2.660691902299826 
H -119.199 136.344 -113.602 14.373493433600053 3.315229545363545 -3.204406267816203 
H -121.322 137.483 -113.096 7.480481704956524 -9.749898908915956 -6.006819200852254 
H -123.277 136.183 -112.203 -14.636119592421382 8.888475811144996 -4.208041326236659 
H -123.105 133.754 -112.053 -15.706429810826155 -20.58802342060795 12.007530237493734 
C -120.943 133.66 -112.446 -18.664605081610617 -8.36266141432628 -11.555264019445131 
C -119.813 134.344 -112.909 -38.94070420502905 31.077973085717417 0.12835564172057007 
C -120.0 135.735 -113.194 15.71939320650703 -20.094839261527117 -1.2809120362718962 
C -121.21 136.378 -112.991 -42.80750418034236 12.014808807077452 23.71162902813334 
C -122.367 135.681 -112.499 54.51694035151249 -16.499629066326 -7.107875387351952 
C -122.212 134.296 -112.289 24.060786920363448 17.038450734204318 -6.921355223298147 
12
Properties=species:S:1:pos:R:3:forces:R:3 energy=-145430.76150128455
H -51.916 55.3508 -45.1109 -52.52794966610413 -10.259809073858356 43.62435107915249 
H -49.6787 54.832 -44.0492 0.9081705350680176 -10.449330550980978 2.2273917060697297 
H -47.7031 54.688 -45.572 26.56680981191978 -2.69239008469513 12.161907536259779 
H -47.7395 55.7553 -47.8052 -12.590312663209717 3.0191750912399975 -3.982130558658585 
H -49.9525 56.5921 -48.655 -8.247353361580886 6.449305952729966 -17.497407354597552 
H -52.1128 56.0938 -47.2898 -4.423644937278126 13.32537941354459 -9.42854970604847 
C -51.0228 55.44 -45.6148 51.262897986329826 13.2280946548857 -30.744184620071632 
C -49.7691 55.0929 -45.111 23.506867378920468 1.1298419924046776 7.188864593189164 
C -48.5979 55.1663 -45.907 -46.376645285656146 8.853292500693884 -23.32454264972936 
C -48.6941 55.704 -47.237 32.90393827946725 -20.710058636150407 47.71819783860647 
C -49.9184 56.1375 -47.6762 -36.922654974875016 4.918630358528661 2.1208895604160136 
C -51.1078 55.9753 -46.8846 25.93987689699868 -6.812132804163648 -30.064790982051196 
12
Properties=species:S:1:pos:R:3:forces:R:3 energy=-145434.70675365286
H -83.6646 90.6507 -78.6078 4.080987716025199 -14.935461142485963 -5.52656167699986 
H -81.3576 91.7934 -78.8193 -9.592525040365283 -1.5722907980089 11.210613433012954 
H -81.0145 93.8695 -77.6991 10.84826921074522 16.898456258911867 5.313077128168575 
H -82.888 95.0404 -76.5531 0.9155890315352289 22.19915222953342 18.72075607980681 
H -85.1385 94.0455 -76.3556 -8.831264688933187 -1.8830114868361667 -1.0744854943096718 
H -85.5144 91.7679 -77.4696 7.3374811733110725 -2.4790098881159413 2.931740948014791 
C -83.4228 91.5643 -78.0778 -13.364647877501062 12.766675084178782 6.231380504079355 
C -82.1724 92.1907 -78.1626 2.8817040431346044 -10.627475260983006 -17.90525034460033 
C -81.9945 93.4336 -77.5607 -8.37916211418901 -16.17871861724574 6.800699117632821 
C -83.0513 94.022 -76.8464 5.96073345169917 6.891074097053469 -27.57657912261403 
C -84.3449 93.4835 -76.8559 22.93922670214787 -14.385263893308101 10.198085902564427 
C -84.4939 92.2019 -77.4132 -14.796391607609822 3.305874603127319 -9.32347766057689 
12
Properties=species:S:1:pos:R:3:forces:R:3 energy=-145434.58736191003
H -85.4704 96.0888 -77.0486 7.842136965196215 -7.914142390784771 -21.106879419525516 
H -83.0193 95.6541 -77.6157 12.319908704144076 17.891769930943163 15.194134959759142 
H -82.3434 93.9566 -79.1293 25.320087368061987 -5.7135336388724 -5.657668423548423 
H -84.0642 92.711 -80.4942 -0.1538531658634693 2.1764025868891643 -6.034559112594178 
H -86.4146 93.2072 -80.189 -14.018145555506958 -0.18806291723536495 -4.928179775416521 
H -87.1921 94.8193 -78.4989 8.960699427806118 6.901988393965907 5.1622810089631095 
C -85.1511 95.4416 -77.9224 -5.889365997833656 18.61077829266566 19.450602845894775 
C -83.8012 95.2199 -78.2099 7.286196784689916 -16.343040211308143 12.115418607950867 
C -83.3803 94.2108 -79.0755 -41.27199399373427 8.123445734605923 -18.972325643190118 
C -84.3649 93.5583 -79.8602 32.85201829076514 -12.580080213399047 12.851420971091464 
C -85.7034 93.824 -79.6464 -0.5480580280098871 2.9299076686768264 3.242689314482995 
C -86.094 94.7504 -78.6644 -32.69962842807311 -13.89543442196796 -11.31693414804655 
12
Properties=species:S:1:pos:R:3:forces:R:3 energy=-145429.7386290955
H -142.611 161.538 -131.84 18.737716878235606 12.292969221608573 4.450380458593623 
H -144.803 160.735 -131.728 -44.16065880641212 29.32358049287415 49.572616808368245 
H -145.785 159.145 -133.24 40.92251118653741 1.3532281469746479 -13.74474739829878 
H -144.24 158.316 -135.136 -7.95173884706561 -25.52676530408608 -18.750005541740993 
H -141.805 158.775 -135.102 15.483166981645024 -4.697727313230165 -13.66414595594379 
H -141.0 160.533 -133.436 29.242713426604734 3.140195243966615 -2.7617250412868577 
C -142.881 160.788 -132.573 -4.9282319515425685 7.673170510094478 25.99444719573982 
C -144.192 160.385 -132.473 20.280173604534376 -42.3883840321869 -50.35623818727512 
C -144.654 159.41 -133.36 -48.017050830399874 -3.339077592430694 5.380916764420603 
C -143.802 158.882 -134.346 -9.610390620252591 16.178128078364555 14.652297748959452 
C -142.451 159.237 -134.377 -16.812107141944253 4.504704106557085 16.533066848196594 
C -142.007 160.175 -133.44 6.813897305880913 1.4859796273147758 -17.306863699732805 
12
Properties=species:S:1:pos:R:3:forces:R:3 energy=-145426.39422417144
H -146.456 166.86 -138.734 -11.95242394763955 -3.775667256243917 16.872083598836614 
H -148.379 167.986 -137.488 3.487379929975267 24.502016701931822 13.496426984583021 
H -150.485 166.795 -137.259 -21.7117406473072 9.573906464113414 1.766383615265967 
H -150.734 164.531 -138.106 -41.381100202406216 -24.674991232170893 -1.944018422217979 
H -148.826 163.443 -139.258 -1.5257544368581264 -38.39980379285614 -12.34254839956479 
H -146.715 164.694 -139.543 9.682437549577775 -13.914621006501129 3.03334209528312 
C -147.382 166.302 -138.417 21.97594157647834 75.83775374604592 20.049397413202314 
C -148.464 166.955 -137.756 38.304801739711856 -9.883556356535648 -41.98609424214511 
C -149.676 166.331 -137.8 -16.895279444328164 -22.535228143978 29.99018505090756 
C -149.81 165.004 -138.248 28.87014979855784 32.95832596176722 6.424531779425463 
C -148.703 164.383 -138.79 -16.044331889682418 -2.056355993241764 4.906717600295028 
C -147.491 165.039 -138.858 7.189919973920593 -27.631777906509846 -40.26640588805016 
12
Properties=species:S:1:pos:R:3:forces:R:3 energy=-145433.3999352133
H -63.8467 73.0056 -60.7825 9.011545062640051 -16.02850710781622 10.633111468417253 
H -65.8807 72.1702 -59.7528 11.469913363798712 -10.654344780076762 12.453883951804242 
H -65.7576 70.3741 -58.0429 14.888501443221571 -12.260426734628124 -2.368510339714309 
H -63.5464 69.2051 -57.578 3.4355808950199083 -24.670004854670154 15.47746081076903 
H -61.5157 69.8115 -58.9288 23.262322619416924 -9.698691598662823 4.781427305979788 
H -61.5611 71.7268 -60.4374 -17.95870122827353 0.6466507472831208 -3.143426606318461 
C -63.7342 72.1056 -60.1062 -23.334467971888973 13.380593613114009 -31.931657515338593 
C -64.9272 71.6355 -59.4926 19.863570954460734 24.306503271060986 -20.30991399638183 
C -64.8121 70.5745 -58.6088 -30.837557355097957 -5.062257003686691 15.919297732713233 
C -63.5928 69.9041 -58.3843 -4.897903392456029 33.22451076954924 -8.501461767824853 
C -62.4401 70.3356 -59.0607 -33.797542188799454 4.776925929287088 -17.734936796789714 
C -62.5391 71.3956 -59.9999 28.894738983779085 2.0390465634252863 24.72472575268421 
12
Properties=species:S:1:pos:R:3:forces:R:3 energy=-145431.7245588708
H -82.288 91.0649 -74.4635 12.989692448403277 17.692289928671617 -14.497319238922806 
H -80.1993 91.4711 -75.9313 25.028974230239413 -9.451023386522667 10.005389982500196 
H -80.5635 92.0339 -78.4142 -0.4558936446299962 1.9464588419317774 6.404200877582377 
H -82.7688 92.6269 -79.1582 -10.601801049504171 7.474573944502616 -15.071072823190367 
H -84.7527 92.5528 -77.4546 -49.28349703572492 17.087718041225294 -28.211882748302727 
H -84.4313 91.8604 -75.245 -12.117703685107568 -5.797628510030523 9.062017163844322 
C -82.3001 91.5655 -75.4817 -20.665260688653877 -27.36265107671134 46.56566990376026 
C -81.1858 91.6716 -76.285 -16.58932338446593 13.106709269276745 -64.66345608258354 
C -81.3927 92.0333 -77.6821 2.544819398736278 -2.399505330229009 39.90833536483418 
C -82.6833 92.3838 -78.1085 21.099374358121906 -11.459468652020707 -1.5481273225433687 
C -83.7634 92.318 -77.2341 25.357152576513972 -9.738009867103255 21.54338844750757 
C -83.5924 91.8754 -75.927 22.693468847713703 8.90053679700945 -9.497142338665057 
12
Properties=species:S:1:pos:R:3:forces:R:3 energy=-145426.88630574435
H -58.2397 62.8621 -50.8164 0.7144405790511944 10.862119600568914 0.08874210383955011 
H -58.3737 61.6473 -52.8286 -49.847478268747864 -30.91864379826098 -21.6349219740907 
H -56.4306 61.3684 -54.4321 2.2054386010349663 -13.139309861488474 -10.114927830033078 
H -54.0606 62.0475 -53.6164 -9.172843998854804 8.10248871925026 1.1084841695352816 
H -54.1189 63.6318 -51.5602 41.29969595920271 17.543694693328547 3.991209204590965 
H -55.9681 64.3858 -50.4704 -12.532155255802763 -14.097095149144105 1.6886921777592085 
C -57.3682 62.8692 -51.4906 28.9300752651452 9.007146852378401 -7.46276553852108 
C -57.4419 62.0634 -52.6541 77.91993217839735 40.234622326539494 20.936195895548373 
C -56.2841 61.8815 -53.4877 -4.749550064606455 8.32218815618651 17.448252700575996 
C -54.998 62.37 -53.1128 -37.3709747804807 9.878496458130021 27.20366330571631 
C -55.0117 63.2507 -51.9737 -7.427362851176356 -28.859395587486688 -28.888484963579582 
C -56.1367 63.5822 -51.2246 -29.96921736316248 -16.9363124100019 -4.3641392513412445 
12
Properties=species:S:1:pos:R:3:forces:R:3 energy=-145434.78335906254
H -65.4214 75.1402 -63.718 -2.4396287711600455 3.6721462647012255 6.698704277777037 
H -67.748 75.494 -62.946 -13.911526013569635 1.8091514371308082 -12.286695042451282 
H -68.7639 73.9688 -61.1556 0.5341886650494486 1.2470212707615222 2.560461564161308 
H -67.1403 72.5688 -59.7938 0.9943524512680681 9.91438533210383 -2.7322016546909236 
H -64.6692 72.6158 -60.2766 -26.54111188402001 10.561637290657552 -16.56150758017703 
H -63.8547 73.7009 -62.2435 1.8968239303863708 4.664236169412478 -12.028354440892183 
C -65.8004 74.6348 -62.807 8.239014667981555 -5.977886353137503 -18.526615829707886 
C -67.1555 74.721 -62.4697 -4.145855684734576 -9.158843009758197 30.32044688476091 
C -67.6867 73.9551 -61.3749 14.934829099868153 24.065453126181616 -30.822581621101087 
C -66.777 73.2219 -60.6208 -23.75536566579321 -28.11321532230356 23.729416343831573 
C -65.433 73.1677 -60.9355 46.982539363569366 -14.557020585332369 8.164775155541301 
C -64.9338 73.8074 -62.0813 -2.7882589730244405 1.8729355654036386 21.484154314590352 
12
Properties=species:S:1:pos:R:3:forces:R:3 energy=-145430.62388317013
H -145.793 164.154 -139.086 -2.833424525045404 -4.9535765047704645 15.087278253612508 
H -148.142 163.971 -139.796 8.313115439359363 7.026902783009392 19.313052347779262 
H -149.966 164.621 -138.294 -4.075472462337699 -0.543034890056705 0.8007920676609015 