12
Properties=species:S:1:pos:R:3:forces:R:3 energy=-145433.02120179054
H -64.0362 70.8871 -58.7068 -6.808561111171442 13.357816362451894 -22.1129786140807 
H -66.6175 70.9781 -59.2849 22.246988250551215 5.26934523379289 1.7776951622289994 
H -67.4547 72.6558 -60.8038 1.8003490875022738 -5.1362059899705415 -0.45984598617814443 
H -65.7915 73.9861 -62.2357 -19.801391242063886 10.127247324885676 -8.347088026521948 
H -63.3691 73.7921 -61.8056 6.1995554388320695 20.554094708824085 -16.11977856794806 
H -62.5952 72.4566 -60.0197 36.340833064206734 -3.7058461130231053 4.114427869537884 
C -64.4338 71.5552 -59.5377 -32.696536992604756 -24.646500695706507 27.66627818403815 
C -65.8348 71.6206 -59.781 -12.494431916669944 -22.092131880082363 22.947685163672904 
C -66.3656 72.5328 -60.6752 -5.480873177897369 11.825857709878223 -15.720128415555891 
C -65.4993 73.3196 -61.4358 20.493724559344265 13.33347145636624 -12.248620700288683 
C -64.1187 73.2763 -61.2376 -10.394661829092968 -31.438469798794628 19.3206854778559 
C -63.6259 72.3951 -60.2668 0.5950046832427668 12.551322867199184 -0.8183315467604095 
12
Properties=species:S:1:pos:R:3:forces:R:3 energy=-145429.18537760226
H -156.518 177.931 -147.556 19.77088599564141 30.650981457454964 -15.279610126615449 
H -155.268 175.892 -146.597 11.558919905731644 4.511377907407063 -3.3411480359779686 
H -156.649 173.896 -145.853 5.9738925078527245 7.984478180339786 -6.431901657229765 
H -158.901 173.856 -145.957 -14.26476075855778 22.493122010257135 -4.868132169261367 
H -160.244 175.821 -146.902 3.2012887442848257 9.655475536442388 -0.9835081177973766 
H -158.967 177.909 -147.729 -0.6744096321617892 -16.759236124762815 -6.786176367275734 
C -157.02 177.022 -147.362 -34.35752364743239 -59.865262452826585 26.099883288272693 
C -156.34 175.915 -146.779 -34.62150757135202 -10.940235562010336 -0.708829273858924 
C -157.117 174.783 -146.33 64.9918206027624 22.52175247360502 2.6469174050231117 
C -158.474 174.822 -146.342 -10.883973096635769 -50.49604886030535 9.37525890821655 
C -159.138 175.897 -146.884 -47.879298742706446 -5.030194774230096 -14.37539193309558 
C -158.459 176.946 -147.469 37.184666878394225 45.27378902280778 14.652635707957717 
12
Properties=species:S:1:pos:R:3:forces:R:3 energy=-145431.19828133166
H -103.601 114.976 -99.0904 6.530240610799036 -4.5346449021614035 -19.832641184103597 
H -105.982 115.597 -98.4168 36.987515828658104 2.202458632744988 25.948995860846637 
H -106.29 116.423 -95.9527 -8.395687716293716 -7.84306309143357 -13.399154084134596 
H -104.427 116.759 -94.5321 -12.730109106387395 23.144631066367968 55.214350168693144 
H -102.151 116.578 -95.2757 4.242514329880887 -10.148186552925642 -3.7278917120994994 
H -101.69 115.34 -97.43 8.811957150653276 4.817152536649173 -8.987265376711957 
C -103.753 115.468 -98.1461 -5.228032414352165 1.725102812993499 33.75647720595745 
C -105.058 115.735 -97.7055 -50.759562013269495 3.4778233981611275 -12.078424548761673 
C -105.304 116.18 -96.3802 -12.13374310058319 9.002089325614868 -10.245126237659987 
C -104.26 116.479 -95.5149 14.255025167765611 -25.246153797451743 -51.82247507998589 
C -102.965 116.254 -95.9496 23.70815457246695 -0.2845045571301585 -15.661008121459137 
C -102.703 115.698 -97.2376 -5.288274495158953 3.687293942749844 20.834164295240146 
12
Properties=species:S:1:pos:R:3:forces:R:3 energy=-145431.33768921104
H -145.35 162.628 -137.474 26.23209877749978 -17.863560434066805 -14.373614387346802 
H -147.607 161.945 -137.948 -12.22659526017008 -64.58533774950003 -22.42420327685275 
H -149.597 163.302 -137.387 12.271501117381847 6.109478100494105 3.1849801474316357 
H -149.135 165.691 -136.451 3.557267479174686 -14.860456775470684 -3.8675897321303117 
H -146.865 166.365 -135.962 5.032070743125736 3.7803797090829034 -6.5770591973588886 
H -144.93 165.01 -136.517 11.515336238986775 -8.706735691729833 -9.243049348094697 
C -146.142 163.339 -137.436 -7.049037318664277 27.482574344969898 33.879860700029845 
C -147.45 162.882 -137.553 -4.3879280073560665 60.63878300805896 10.444267095112211 
C -148.562 163.701 -137.231 -6.974835752497513 -23.899901835693942 -13.778980866091604 
C -148.332 164.964 -136.735 19.66416803055722 44.600019734011134 14.250513118683491 
C -146.984 165.434 -136.537 -28.086641072650394 -18.46119289674872 2.148296256443857 
C -145.892 164.617 -136.866 -19.547404975387717 5.765951672414058 6.356578304352964 
12
Properties=species:S:1:pos:R:3:forces:R:3 energy=-145433.75912800172
H -19.089 20.7473 -14.6463 0.5575185083192561 12.613200195229163 3.29974035085352 
H -20.6469 20.0203 -16.4708 -4.689432495009553 -7.24150674690862 5.596293883642181 
H -19.7668 19.3877 -18.6232 -12.914933546344633 -11.124554842201746 -19.220051960561555 
H -17.303 19.7606 -19.2504 0.42975933458510013 -2.572269970142844 -12.005700515618908 
H -15.7944 20.7316 -17.4804 -4.1875610109417085 -5.5525359012034725 0.7220725233067846 
H -16.7816 21.3119 -15.2388 27.224293034463127 11.466227831986037 19.543497695039342 
C -18.7036 20.6465 -15.6676 -28.215315700232484 -19.93265333116955 -10.800528055411151 
C -19.5698 20.0902 -16.6466 11.509303967322982 8.55931560504389 10.082163594516926 
C -19.0676 19.7392 -17.8898 32.305489971905295 23.276445748081322 -17.868129402559155 
C -17.7009 20.0171 -18.2737 -26.205049013606942 -20.138143074505003 41.01797333824776 
C -16.8512 20.475 -17.2605 -1.2277457496498663 32.91758589389198 4.6222201580911495 
C -17.385 20.8742 -15.9958 5.413671513368383 -22.271110222280118 -24.989550423725838 
12
Properties=species:S:1:pos:R:3:forces:R:3 energy=-145430.39294029176
H -106.804 120.38 -101.667 6.448824509385068 5.492643637605416 -2.248384296056789 
H -109.0 119.155 -102.023 15.745489570278433 -18.828725086095112 -5.473544803829696 
H -111.029 120.059 -101.661 12.285977620718118 30.3729372533864 1.9415222689149934 
H -111.285 122.507 -101.138 -17.24362742078348 21.782723895153627 -3.2512011379551247 
H -109.124 124.014 -101.161 -8.300418853413962 -9.159529600144149 6.305968647907295 
H -106.97 122.929 -101.109 19.881575275410494 10.26279734289566 4.638520454197014 
C -107.753 120.933 -101.628 17.5796381150705 15.980266721821556 22.33260927339625 
C -108.916 120.208 -101.805 -26.893922105073493 10.259785357437426 4.1671364292359465 
C -110.169 120.815 -101.611 -15.005209950622936 -52.416784872095384 -10.222958499015798 
C -110.293 122.168 -101.375 -3.3235457083629933 -16.20782696647538 7.539658918463512 
C -109.128 122.902 -101.25 40.586268071325264 34.14752185501482 10.879328235596432 
C -107.835 122.307 -101.231 -41.761050309752065 -31.685809538504895 -36.60865667667508 
12
Properties=species:S:1:pos:R:3:forces:R:3 energy=-145425.97115300002
H -56.0469 59.4631 -49.1622 2.815174739139013 -5.283962849833701 -1.227949710869873 
H -55.2723 58.9493 -51.4676 -25.820405426558857 -14.07702987121545 -27.707895759487837 
H -53.0128 59.248 -52.2872 11.030069807033758 -4.412728268723595 -28.10154209992133 
H -51.1517 59.9935 -50.4751 -22.732636516881218 -6.94290989246127 -7.241006330426976 
H -52.0549 60.4983 -48.1909 23.32579250511242 14.493564929489432 -3.6513908389234757 
H -54.31 60.4954 -47.6831 -5.790855100212635 9.621282386565145 37.80539913506291 
C -54.9954 59.547 -49.4796 43.10250918283971 38.40733968560695 17.10197042438377 
C -54.5583 59.3103 -50.7743 26.672300452220792 4.126581349443966 -19.75105669610102 
C -53.2248 59.5272 -51.283 -22.636064436671308 -6.464132273274969 77.87973165909827 
C -52.2671 59.8852 -50.2945 30.881873859249588 14.273038975283738 -42.96562393033132 
C -52.6895 60.313 -49.054 -9.19041430930152 -18.60060039062313 35.70913670614164 
C -53.9952 60.1566 -48.6347 -51.65734594179078 -25.140444966078167 -37.84977255862479 
12
Properties=species:S:1:pos:R:3:forces:R:3 energy=-145432.67293470263
H -44.0561 51.0046 -39.6367 -15.885301429129719 8.399178773454759 6.60774468858044 
H -41.8556 50.1074 -39.906 23.075534459806597 18.576702539072027 5.630376752162096 
H -41.414 48.1437 -41.2487 -7.5106418774544546 -8.983724515066962 5.824469569419162 
H -43.3277 46.5884 -41.7741 6.71855847955941 -26.57298201046707 -16.334125208680184 
H -45.6452 47.3943 -41.393 -39.61916223024375 -32.635572746780625 -13.396082807624035 
H -46.09 49.4789 -40.2865 11.23588209369387 3.832586666478275 -6.433253493222831 
C -43.9909 50.0305 -40.1142 26.11981456842309 -0.5782502176760743 9.938174088118652 
C -42.6871 49.5582 -40.2855 -14.514411663487767 -12.534467606843535 -18.936084580365485 
C -42.4692 48.3632 -40.976 39.54366100420997 12.110869798416303 7.928297536617428 
C -43.516 47.5395 -41.3335 0.9095057695664319 0.8931995443553349 -8.047746476457368 
C -44.8087 47.9573 -41.129 15.474064619291713 51.4048597387385 29.598760939115298 
C -45.0269 49.218 -40.5168 -45.547503794235396 -13.912398777859893 -2.3805310076631767 
12
Properties=species:S:1:pos:R:3:forces:R:3 energy=-145430.53431302126
H -16.0051 14.4695 -13.3343 -36.52215221715037 -12.342728644363868 -2.8996905767686614 
H -15.7829 16.8038 -12.1378 -16.975319993328135 2.429150856392737 -2.9830419381305995 
H -13.3449 17.5679 -11.7912 -16.710125346119984 3.133673228210595 -0.7531718660735819 
H -11.6263 16.3935 -12.3979 25.607115352379203 -6.248777684653277 4.208167023267593 
H -11.6946 13.9762 -13.3614 -3.143917536231733 -1.2228494945486652 -8.00970296564198 
H -14.1682 13.1525 -13.8326 6.017373008166541 -2.656753790604236 -4.66754816759549 
C -15.0804 14.909 -13.0654 31.745896276754582 0.0894417382570141 -9.963031268896414 
C -14.9803 16.1719 -12.4994 49.891852878130784 9.477423320481991 12.931552828312022 
C -13.6407 16.6171 -12.2693 -20.701737729866775 1.8445612394018114 7.778630319048276 
C -12.5359 15.8362 -12.5706 9.512508207786238 2.7329487219502497 -20.784772477009284 
C -12.5985 14.5865 -13.2215 -38.054313645123 8.038929896976276 22.568445363133936 
C -13.9371 14.1488 -13.4299 9.332818372960558 -5.275020573321673 2.5741649121752292 
12
Properties=species:S:1:pos:R:3:forces:R:3 energy=-145430.1034729757
H -122.202 135.489 -115.805 -20.042497120532442 -2.618841905925014 -13.520831181721 
H -120.068 136.08 -115.137 30.529445472573094 4.308181541975639 -24.398687813398666 
H -119.512 136.128 -112.621 13.932356146073317 7.044398386730178 -5.198314553104598 
H -121.15 135.978 -110.971 -20.047976799588547 6.724064246678537 -20.334825724927732 
H -123.687 135.674 -111.703 -3.7256078207638463 -0.8675893672130136 6.602168958019567 
H -124.119 135.35 -114.119 4.187065337744251 -7.354349477698233 4.845833990302057 
C -122.085 135.66 -114.743 -21.44518349171656 -7.639861982717959 11.438249570213758 
C -120.804 135.992 -114.384 -1.0604951776024851 -6.542279066063603 21.25974479645721 
C -120.514 136.068 -113.04 -20.646461867602934 4.207249197777563 56.142564636910976 
C -121.552 135.997 -112.037 57.46279612744435 -9.546121491171721 6.073008174207487 
C -122.862 135.735 -112.415 6.902505411942203 -0.19326037088238976 16.32907598266398 
C -123.082 135.489 -113.748 -26.045945032149355 12.478411474331066 -59.23798802144408 
12
Properties=species:S:1:pos:R:3:forces:R:3 energy=-145431.4260099697
H -123.799 137.059 -112.329 -9.259177700148811 6.184826355612883 -16.6724055644503 
H -121.438 137.139 -113.086 6.201893877935864 -5.396894517201807 7.270393347602556 
H -120.937 137.302 -115.685 -25.885081292258686 -5.864908438748581 27.226123942159 
H -122.705 137.867 -117.186 0.1799436005296431 -6.011526910407055 -7.174120094296372 
H -125.183 137.996 -116.375 1.2491035725192625 8.385602308292817 -8.086452861237778 
H -125.681 137.551 -114.039 9.888821401982325 2.8878797991450322 0.33819023337057696 
C -123.629 137.269 -113.42 49.5815294393541 -3.4185276025494855 29.514788207524965 
C -122.242 137.236 -113.811 -32.79821166077797 -5.314050687247792 -31.251076870450564 
C -121.984 137.299 -115.193 19.687365061869816 26.518654805040466 -38.482007279445014 
C -123.008 137.63 -116.162 9.654369165405956 5.667241556857214 32.13732276018894 
C -124.319 137.841 -115.722 2.487634364587494 -28.432440719676677 30.58846497188089 
C -124.607 137.564 -114.34 -30.988187459356904 4.794145236704027 -25.40921960702585 
12
Properties=species:S:1:pos:R:3:forces:R:3 energy=-145429.2948387378
H -120.147 133.652 -109.997 11.851281713116235 -11.241117493614384 7.6570670602823405 
H -118.265 133.869 -111.868 -7.364303259562966 3.078802916744674 5.035470492066192 
H -118.887 134.888 -114.159 -10.204829666856153 -5.494308530354771 24.318185980011588 
H -121.285 135.37 -114.62 4.575496437215021 6.669123971770869 0.3169379485743235 
H -123.075 134.916 -112.83 3.413493792206884 11.698429380216055 -8.721208637602963 
H -122.509 134.335 -110.581 3.8169765182215025 -6.366677942206423 3.398851273924096 
C -120.347 133.942 -111.024 2.2860922195160045 47.37158234670016 -38.73562949905989 
C -119.316 134.195 -112.019 -25.970133121001382 -7.8343141037521296 -12.870956187012313 
C -119.653 134.742 -113.331 37.17712742818026 -9.155029409272496 27.756488334333326 
C -120.951 135.105 -113.604 -64.77504302888485 -23.816544545226776 18.153128447065725 
C -121.994 134.843 -112.624 25.6714947628174 -0.5202161356579602 11.847184701400408 
C -121.681 134.384 -111.305 19.522346205032044 -4.389730455346822 -38.15551991398283 
12
Properties=species:S:1:pos:R:3:forces:R:3 energy=-145435.39043023865
H -173.847 190.68 -159.457 3.5493995565308327 -5.853401231312868 3.7052283002578528 
H -173.041 192.776 -160.352 0.43717071612603214 -1.8546727354657357 0.8232989511244039 
H -170.553 193.351 -160.289 -2.0254594258739265 1.8449454454208931 -11.102534145367327 
H -168.925 191.469 -159.562 9.177057221033191 15.303047879600491 -4.786359135712386 
H -169.731 189.476 -158.632 6.525453451234118 -12.56360560159934 1.0824447251741094 
H -172.239 188.935 -158.583 -5.05654964698965 -20.843353222529856 9.127040475110794 
C -172.751 190.829 -159.474 -17.211764409262702 -21.156688646764763 -3.2472025493861616 
C -172.315 192.017 -160.013 36.146498339456166 36.891087232794824 -8.38225117801527 
C -170.91 192.337 -160.072 -23.162928285116223 -9.258017967165287 12.855694670143226 
C -170.009 191.38 -159.612 -10.650645018411529 -36.12745049598545 16.351893551241677 
C -170.472 190.133 -159.077 -20.079230299091392 19.431904819632788 -8.299892348869292 
C -171.856 189.838 -159.017 22.35099898618613 34.18620333755325 -8.127361315701629 
12
Properties=species:S:1:pos:R:3:forces:R:3 energy=-145426.55607402418
H -162.083 178.137 -150.097 1.329672997705996 -20.5809250958233 5.912185938053448 
H -159.948 179.202 -151.167 1.8795382169908241 -4.5294237320934485 5.89228193178712 
H -159.925 181.557 -151.778 -9.838891220996326 -3.627749124718426 15.053322267944573 
H -161.823 183.044 -151.161 -0.272023790615229 2.553147419946193 -7.138405536016405 
H -163.963 182.033 -150.528 -7.253980398497269 -4.047516731165303 2.066673822167788 
H -163.97 179.553 -150.033 -45.688033074819835 -13.4612638330897 12.509540462624027 
C -162.002 179.174 -150.361 45.75255952706781 20.04608185755616 -30.891992470239796 
C -160.851 179.769 -150.9 18.495639812329927 23.516247223398672 -14.80867671365207 
C -160.834 181.171 -151.239 82.71757677300972 -73.9902267682067 -20.309258237343087 
C -161.895 181.954 -151.04 -30.91058733007073 63.62753348870764 4.194257342391571 
C -163.079 181.398 -150.643 -17.344071206710378 -38.69098215083627 13.640724804453397 
C -163.08 179.997 -150.373 -38.867401491215574 49.185076260503436 13.879345202008384 
12
Properties=species:S:1:pos:R:3:forces:R:3 energy=-145427.83090750576
H -20.8987 22.5399 -17.73 -12.48040602533136 -8.59246997568436 0.6958148878730472 
H -23.2175 22.8586 -18.6791 -23.62017850902347 -8.60052407223252 5.044923857449282 
H -23.6621 24.0349 -20.8117 -7.042970658190132 6.008332308507652 -2.9422923836869854 
H -21.6955 25.323 -21.8286 -1.6526942082491167 8.839378076533677 -18.883589468455796 
H -19.501 25.0195 -20.9165 12.861167234273053 -7.583036252346278 3.304131446188892 
H -19.0855 23.4944 -19.1186 49.79980114775031 -13.148261624568871 26.842662618694312 
C -21.1242 23.0175 -18.692 -41.23720200422853 -9.329240750863118 5.605899034119228 
C -22.3978 23.2467 -19.2567 -1.7514197394795639 -4.3050782482968195 12.472517943729716 
C -22.6403 23.9949 -20.4324 -6.480610442537816 -29.484748988773784 27.27609681270267 
C -21.5655 24.6016 -21.0395 28.83322807445249 4.057468141387944 19.182821922984097 
C -20.2867 24.4038 -20.4615 -24.52560979747396 9.497215859569941 -30.32334265975658 
C -20.0939 23.5327 -19.3817 27.296894928038096 52.64096552676654 -48.275644011841884 
12
Properties=species:S:1:pos:R:3:forces:R:3 energy=-145434.77817500598
H -123.6 137.912 -112.215 -3.443519966926554 3.990514313457687 2.2557363865453937 
H -121.255 137.449 -112.972 -3.907088245369817 0.02709838255574054 3.736622912465241 
H -120.713 137.064 -115.28 20.42316227796936 -6.11296441437096 -11.98906107469373 
H -122.584 136.734 -116.997 -2.5994632183823083 -6.3660126965993085 -17.772122958988447 
H -124.912 136.921 -116.277 -4.825124811545123 3.1305568905002636 5.700997138768282 
H -125.492 137.859 -113.963 -13.665943660650358 -4.113412806722038 2.97516927220256 
C -123.426 137.65 -113.265 5.03721364900462 -14.855783454726234 -21.897581335901332 
C -122.095 137.355 -113.681 -1.9002734838107822 11.260841255081635 -4.595420602439139 
C -121.756 137.089 -115.03 -51.67304028334186 3.4083176833386974 13.158732424409902 
C -122.83 136.93 -115.965 34.40382995930014 5.0068008966237745 42.39413407844161 
C -124.137 137.077 -115.504 -23.138896435786858 10.211144163929028 -15.82950499142644 
C -124.488 137.531 -114.209 45.28914421953955 -5.587101398889333 1.862298750616093 
12
Properties=species:S:1:pos:R:3:forces:R:3 energy=-145427.070948539
H -77.978 89.6345 -72.1117 -11.647388084909439 -15.651559499360232 -14.837847911397178 
H -76.9842 88.3109 -73.9502 49.73049820832684 -4.0198076507705895 -5.653707781252951 
H -78.3892 87.1968 -75.8498 0.15174121857956535 17.596213521659163 30.71106226659942 
H -80.8874 87.3769 -75.5116 -1.8129045607431358 -1.6499893504419383 -22.202399007558874 
H -81.8843 88.5423 -73.7366 5.679572909920279 16.093940713164805 -4.434483341643586 
H -80.3631 89.8236 -72.0671 -19.09768352930501 -0.19613835856236447 16.60982148707658 
C -78.6088 89.0991 -72.8869 16.652563220878395 10.235748764823875 -1.554746575625206 
C -78.0239 88.4399 -73.9795 -15.709830745587658 -9.874196671015234 7.039170101735943 
C -78.7815 87.809 -74.959 -35.64515810321718 -2.774354035432606 -40.94701262100121 
C -80.2092 88.0045 -74.9425 31.93486397544846 -21.373552785578717 14.230869993047405 
C -80.7917 88.6943 -73.8948 -13.660394018152507 -18.844852252328177 28.39807443992664 
C -79.9877 89.1638 -72.8376 -6.575878119596527 30.458547603842018 -7.358799864085933 
12
Properties=species:S:1:pos:R:3:forces:R:3 energy=-145433.00478877762
H -26.7544 33.0675 -26.8073 7.9615384721942934 0.12760501699810448 6.927832177854399 
H -28.4494 32.9549 -24.8008 7.864100742620399 3.573302151366123 25.585349607069794 
H -30.8321 32.4485 -25.3767 -19.183189527508528 0.4273805775657226 28.80479920068252 
H -31.6372 32.0905 -27.6895 -8.508270752274138 -3.2994047634973467 5.23330220308303 
H -29.9959 32.1439 -29.519 1.4694801132730912 0.9094761240402682 -21.3399513604037 
H -27.6861 32.6697 -29.114 17.415501509091357 2.0146933565923066 2.5980473480527286 
C -27.8103 32.8221 -26.9184 -36.43155074590983 1.2190939992942442 24.601635156410318 
C -28.7454 32.7742 -25.81 -2.0836950974699535 -7.999069708317572 -78.88594706411602 
C -30.1035 32.5046 -26.1506 13.621138598227546 -2.248209980362946 -5.509427748698272 
C -30.5888 32.2658 -27.449 51.42038450787992 14.699698573653158 -23.646845252718265 
C -29.6304 32.3556 -28.5279 -42.9132960191892 -10.640265526791085 56.66428202201387 
C -28.3065 32.6167 -28.2139 9.367855827422945 1.2157001794590205 -21.033075103409345 
12
Properties=species:S:1:pos:R:3:forces:R:3 energy=-145427.79780811045
H -108.278 123.953 -103.108 -3.789811729687155 1.182039463231677 -1.0996521743805836 
H -109.67 125.159 -101.387 -20.44122588997145 -27.475642035131774 -14.539421815180534 
H -111.967 124.231 -101.143 -29.81733028859419 7.297822574230284 15.70460720387761 
H -113.141 122.853 -102.915 10.036503555119552 -2.137900163328761 1.6806866998739554 
H -111.622 122.101 -104.928 -17.102272808750637 -21.264133520150487 -10.166675874683435 
H -109.297 122.417 -104.86 9.844297379147543 7.766195799554164 -0.03766049061735357 
C -109.363 123.726 -103.065 23.56031589095158 25.073328680664535 -2.4410885168683474 
C -110.154 124.37 -102.07 44.362930231427235 -20.610562321239705 -23.622365163033308 
C -111.455 123.881 -102.016 -3.8683581441684756 23.97472595791015 22.35602212413931 
C -112.049 123.061 -102.958 8.678950718788139 -26.92758993622712 -37.01823570869001 
C -111.226 122.533 -104.028 -33.67258392437724 41.32047154393825 29.146230282973313 
C -109.896 122.899 -104.075 12.208583824294045 -8.198753671809119 20.037555804231474 
12
Properties=species:S:1:pos:R:3:forces:R:3 energy=-145430.54995286785
H -56.6897 59.942 -50.3591 -36.05163502737433 -16.092253289815563 3.383401211508607 
H -56.1639 62.2959 -50.9138 -26.540897250410588 23.718503232740183 -6.1603403368226894 
H -53.8497 62.8974 -51.1385 16.38666893925278 41.102547281108684 -7.353882264205893 
H -51.9768 61.2556 -50.6403 5.817785096179766 12.682148574159717 0.43219975429889823 
H -52.5618 58.9683 -50.1854 16.462155935434005 -14.876101312537807 1.9405700546146145 
H -54.8913 58.2636 -50.1669 -3.2747871185709863 -9.170351403014955 -3.5405236859974125 
C -55.6836 60.2368 -50.4973 17.55494102013402 -7.0903157492946525 -19.429983789537374 
C -55.4156 61.5525 -50.8288 47.603953467339835 -21.414924896071767 18.270446466485016 
C -54.0486 61.8983 -50.8698 -26.78424077319398 2.545644730184676 -6.183562270377261 
C -53.0374 61.0016 -50.6121 24.092354662443633 11.639906739926762 -6.43036720479553 
C -53.3381 59.6833 -50.3875 12.622079623225723 -9.763456400941152 -4.734690541072147 
C -54.6388 59.2914 -50.4374 -47.88837976028091 -13.281346320623081 29.80673142008013 
12
Properties=species:S:1:pos:R:3:forces:R:3 energy=-145430.38579227045
H -79.6378 87.4828 -75.6986 -0.043561136144982 6.233792464088035 3.9523960959163653 
H -78.0082 89.4077 -75.5744 -12.68751797185849 -3.2750219111382037 -2.2105269591457084 
H -78.8895 91.6083 -74.7582 14.15180656058979 13.568291297467038 -0.017228793985312196 
H -81.0565 91.8646 -73.9967 -19.06285003606263 9.984575265670118 2.469817403363093 
H -82.7425 89.8576 -73.9096 -4.7232734560359715 10.76655428242752 -12.290832372082692 
H -81.9464 87.7066 -75.0308 -8.351394928563016 -11.635726720737676 11.568166938252634 
C -79.9738 88.4691 -75.3047 -3.8803598389805996 -52.21394306715687 -8.114387247631335 
C -79.0856 89.5213 -75.3035 32.597657304638254 13.577392473999302 1.2800843331814051 
C -79.5318 90.7478 -74.8442 -25.875125138751862 -3.7038883224752523 0.4825331144407223 
C -80.8798 90.8909 -74.4463 19.467375098777165 12.506272339819738 5.0297097734220575 
C -81.7934 89.8436 -74.4759 14.021012870797515 -44.38649723890636 27.451881738822067 
C -81.2821 88.5391 -74.8155 -5.613766956763082 48.578199136942615 -29.601615210374344 
12
Properties=species:S:1:pos:R:3:forces:R:3 energy=-145432.58571382498
H -112.658 128.21 -106.17 21.476855586048842 1.5893761076475799 16.9272586663115 
H -112.995 127.549 -108.459 -0.2440063967484129 1.4412848462492927 -4.000989856582902 
H -115.295 127.535 -109.327 -7.160098946241975 -4.205230930356337 -28.424430498507235 
H -117.258 127.925 -107.882 -17.353264877284275 3.7840047640222036 -10.032025894847784 
H -116.961 128.581 -105.461 24.678238010196342 4.37790307622854 -14.297849909040686 
H -114.447 128.8 -104.684 -5.274676685218174 2.2481139288581757 22.82531080331113 
C -113.673 128.198 -106.514 10.79885130445133 -7.410304815421748 -12.471283504020258 
C -113.855 127.846 -107.845 15.888238707862019 8.656571903997664 9.652915348802889 
C -115.135 127.886 -108.329 -34.43482376399379 -15.420052842263495 -6.829219299623374 
C -116.262 128.126 -107.524 28.37999066896676 11.612370789404844 43.62847417893134 
C -116.052 128.492 -106.145 -27.74573412326217 -23.365549527340068 -18.04903826142069 
C -114.732 128.486 -105.675 -9.009569484776499 16.691511513152303 1.0708794125071157 
12
Properties=species:S:1:pos:R:3:forces:R:3 energy=-145429.18516056618
H -123.0 139.096 -113.894 -21.07708210826783 -7.25932370813302 -4.709808458052407 
H -120.772 138.369 -114.094 -13.405274106555837 -10.321219188395997 2.9023646032286297 
H -120.174 135.876 -113.957 0.00282343991183346 13.316126451918366 1.0752740653056267 
H -121.854 134.24 -114.118 -11.769662836303306 7.310426666134054 -1.984150163896341 
H -124.312 135.007 -114.152 -25.97192608242376 -34.54770088359375 -4.605259359662357 
H -124.953 137.273 -113.854 -6.124112318029567 -0.37652782780551 -7.8729422243434675 
C -122.937 137.998 -114.038 53.524129467604936 16.818246137502236 1.994718201063187 
C -121.581 137.585 -114.079 13.611321185783165 41.72035411725554 6.998262833093137 
C -121.214 136.254 -114.01 40.98732105001551 3.3657846540410734 -12.298926786546437 
C -122.175 135.308 -114.134 -39.2593853105418 -41.10439241865711 -1.9980977910458522 
C -123.529 135.712 -114.204 28.272423656013242 -28.276708027454426 11.166918299089714 
C -123.909 137.013 -114.067 -18.790574851385532 39.35493521300959 9.33164559594552 
12
Properties=species:S:1:pos:R:3:forces:R:3 energy=-145432.77560945816
H -104.018 119.224 -97.9052 19.59810949751711 38.851200804077614 -1.2394699623370977 
H -106.181 118.919 -96.9931 -18.798017064273672 3.315286464773779 -1.3635554624690442 
H -107.256 116.593 -97.1219 -40.24061072282458 -5.425570041749457 11.944412540649065 
H -105.775 114.526 -97.4419 3.5324411297441336 24.14027250511364 -4.878537748944835 
H -103.331 114.962 -98.0623 -16.69523617705951 11.30827765440674 6.828838651067432 
H -102.523 117.382 -98.3898 -1.778219295131574 -17.01637548960176 6.691297639520292 
C -104.324 118.236 -97.7101 -31.588655220161122 -51.66587199511548 8.46486258704416 
C -105.656 118.018 -97.3035 6.433383933537951 -12.586442143313782 -5.288448810852795 
C -106.224 116.713 -97.2969 46.87558186263378 17.15405642803239 -1.821540895425153 
C -105.4 115.593 -97.5361 3.7971389179337818 -10.26276651154845 5.116610297176316 
C -104.04 115.812 -97.8309 24.58553763570341 -8.398327353943337 -13.857390911152574 
C -103.522 117.12 -97.9742 4.278544316559236 10.586257307226004 -10.59707911009681 
12
Properties=species:S:1:pos:R:3:forces:R:3 energy=-145432.00414089896
H -9.0243 6.39535 -6.58535 -9.954685460370802 -3.331215598892073 -4.295641484408382 
H -7.08458 5.71187 -7.88355 6.597920161209782 -4.664608517221094 -0.4180623957819396 
H -4.85737 7.15616 -7.52673 7.2477738111396315 -19.52562144276261 -11.555361256770949 
H -4.86928 9.10451 -6.29957 -8.106457662293062 8.116748217335015 -2.0293180875593975 
H -7.00109 9.97125 -5.24405 -5.2604243020597 -3.8389130217616145 -7.399826900654439 
H -9.22184 8.49189 -5.44514 1.138499671865533 12.631236533347176 7.427813463174045 
C -8.16678 7.07081 -6.59119 1.1079718948431723 -25.275584690006042 -27.347274535200736 
C -7.01186 6.63684 -7.30242 -5.746282458714947 10.040557877277704 26.4992618876452 
C -5.83656 7.37398 -7.11282 0.33348015217368376 14.998185146743179 -21.012030337296235 
C -5.84893 8.62562 -6.47819 -19.090447649278964 -16.131053354458647 25.325785238190658 
C -7.04572 9.04737 -5.865 -16.559323297809282 14.620218918008204 14.563022025648955 
C -8.26387 8.2734 -5.923 48.29197513929496 12.360051118211857 0.24163119719217496 
12
Properties=species:S:1:pos:R:3:forces:R:3 energy=-145431.11773074293
H -142.521 161.798 -132.256 5.740812266227215 22.029964025895982 17.385003377595158 
H -144.905 161.018 -131.912 30.168051092963648 -25.729109064185035 -19.215034751713606 
H -145.513 158.959 -133.151 -68.55000234996399 -19.63235838098354 6.230390343505486 
H -144.086 157.737 -134.655 7.084161338063063 10.6974920646765 10.246417596779676 
H -141.545 158.41 -134.685 -13.481524771491038 1.3961204800493763 -2.428949266814824 
H -140.878 160.486 -133.458 0.3642367926580284 -2.482111995973714 -3.005855949245158 
C -142.843 160.868 -132.672 21.037284768124593 -9.883219583358427 -6.548301851159026 
C -144.121 160.39 -132.519 -55.08172082792081 53.19244939177991 31.526350996554385 
C -144.55 159.304 -133.24 31.128387081690406 1.8281103440230353 0.5812147702924471 
C -143.693 158.602 -134.053 23.177561316830637 -30.982144515303688 -35.37168049599887 
C -142.341 158.979 -134.156 17.496689932864385 19.267312858371767 23.646911658696876 
C -141.921 160.133 -133.415 0.9160633599538486 -19.702505624992156 -23.046467614313585 
12
Properties=species:S:1:pos:R:3:forces:R:3 energy=-145424.19078242118
H -141.877 156.693 -134.176 -12.618561292180614 15.067726436197006 35.73715884329264 
H -144.126 157.43 -133.159 3.226447123608412 14.51950595070374 4.729631828487569 
H -144.176 158.972 -131.206 2.6499056740604146 13.219187953005068 -8.453983864763119 
H -142.142 159.813 -130.173 4.6028011526328605 22.778258610005103 36.154487215846764 
H -139.774 158.845 -131.194 3.8464014816705725 22.659223521710413 11.224959496034106 
H -139.915 157.558 -133.235 28.009737020318543 -2.886849320655581 1.8026590669009515 
C -141.987 157.356 -133.23 12.792239014300291 18.62627578792301 -33.87261296179334 
C -143.194 157.906 -132.768 -3.6982212836937944 -32.498581956199075 -15.472500521331316 
C -143.202 158.841 -131.724 -17.311969845159243 -22.458784190212214 30.09649627937278 
C -142.043 159.199 -131.022 45.46923011859477 -27.398564852927127 -76.69902624454397 
C -140.77 158.794 -131.638 -34.65692567437035 -11.62670855167867 27.4084356273186 
C -140.787 157.901 -132.708 -32.31108348978187 -10.000689387871676 -12.655705950642718 
12
Properties=species:S:1:pos:R:3:forces:R:3 energy=-145431.89782904333
H -32.3001 37.806 -33.3402 2.960098672521967 12.916827302555973 4.179645655455992 
H -32.3068 39.4471 -31.3392 25.973819838635098 14.94165112834895 11.554214567818937 
H -34.288 39.8679 -30.0116 -11.437108810366977 -8.528969258641654 -23.52470924238685 