12
Properties=species:S:1:pos:R:3:forces:R:3 energy=-145428.21807113366
H -85.3755 96.3994 -77.6923 -1.0850001695294227 16.281358543750848 3.3369929190308607 
H -82.8798 95.8697 -77.8611 0.7847455372589988 15.314080758617585 -1.4487922792949952 
H -82.1635 93.7662 -79.0579 31.705847542549478 1.1894982776144711 7.787784857527636 
H -83.8607 92.0364 -79.4895 8.181354119593104 -3.8201130148896243 -11.462016981449741 
H -86.3752 92.6503 -79.3315 21.334433735074104 -1.6080231436045647 3.008805086187926 
H -86.9336 94.7349 -78.4371 -48.644896827526814 12.14561909836438 0.79458666612431 
C -85.0147 95.5225 -78.2144 29.17491292244724 9.72763037548281 -1.6071989979772132 
C -83.6466 95.252 -78.3345 20.487074474915218 -15.685100447661876 12.534149806803061 
C -83.1766 94.0085 -78.8226 -50.33013826604057 5.334646027184257 -25.212318765530554 
C -84.13 93.0727 -79.2712 -36.09120706151872 -6.021825766196334 30.758428702482774 
C -85.5268 93.3379 -79.0664 13.174514516718423 -13.779279692995337 -36.92702946871574 
C -85.923 94.6067 -78.6882 11.30835710441686 -19.07849220148766 18.43660964063271 
12
Properties=species:S:1:pos:R:3:forces:R:3 energy=-145430.6342118016
H -86.8601 93.4629 -79.116 -0.6579113039411512 -24.67239072661581 2.090237272183765 
H -84.2808 93.4724 -79.6904 4.201373454491913 -12.040900427564672 -1.051408230922779 
H -83.3731 95.5873 -80.6816 0.08428223088347887 2.4626989196206583 12.516102796295629 
H -84.5433 97.6812 -80.3797 -12.052839273861329 7.924482750310679 -4.982844939841389 
H -87.0947 97.6542 -79.7436 9.208643936250121 -10.805918797888763 5.71645075864691 
H -88.1366 95.5196 -79.4555 -0.1647496754602092 -9.93512297056588 12.73097001246719 
C -86.3057 94.3406 -79.3992 47.55325368849463 -9.363127958910352 -9.531397151236723 
C -84.8987 94.3631 -79.7365 -39.297213001926714 15.868303870248482 8.159035781676003 
C -84.3544 95.5847 -80.1628 -8.25304293096223 -0.45593989165081167 -15.347258845678985 
C -85.1326 96.7785 -80.1583 25.024041214685766 -15.278292679432733 22.37691273351637 
C -86.4528 96.7365 -79.6811 9.658895444340635 33.63680888922391 -35.90301963307347 
C -87.0336 95.4966 -79.4716 -35.30473496881594 22.6593990232253 3.2262182601464278 
12
Properties=species:S:1:pos:R:3:forces:R:3 energy=-145431.78112670634
H -134.862 147.646 -122.362 -27.68690554114287 -4.953709316727678 15.251680483506076 
H -134.574 147.034 -124.832 -9.584029818387803 5.242900238633798 -3.1501051504526263 
H -132.493 147.49 -125.974 11.048524739981204 1.0185171125546462 30.89928171221293 
H -130.383 147.867 -124.456 22.06077047086428 6.7491218312131664 -19.40990072429302 
H -130.694 148.416 -122.092 17.669928901196844 9.590261307987417 4.8055421627824115 
H -132.913 148.48 -121.08 1.0558550598473382 0.9917981927338014 9.524413851093595 
C -133.917 147.758 -122.838 20.032531480457244 9.160552963707321 -49.24156877516103 
C -133.787 147.512 -124.245 34.37981826892856 -0.15276339632169067 28.349636021817197 
C -132.495 147.666 -124.838 -56.419062530334834 -12.500130972619658 -53.07337042810649 
C -131.385 148.019 -124.11 3.8597739856125073 -6.259670636786877 24.16750725708973 
C -131.537 148.294 -122.756 -26.068865767158105 -3.6939665577787757 18.969983646623184 
C -132.809 148.236 -122.137 9.651661935956685 -5.192910766595473 -7.093101242932997 
12
Properties=species:S:1:pos:R:3:forces:R:3 energy=-145431.59477520024
H -95.3396 103.564 -86.3687 3.655556628260003 -7.705982178452492 -4.353788219425918 
H -94.0663 105.18 -85.1049 -23.503395294896176 36.19940137380586 24.344057037784147 
H -91.5322 105.402 -85.3049 -19.11938761192 -28.440220891563083 -10.282509246152447 
H -90.335 103.462 -86.4747 -4.930232431648098 0.009059672795635293 6.713969352109264 
H -91.6982 101.668 -87.5611 12.701451369155441 -3.719837615551338 -1.7241494128720738 
H -94.1007 101.72 -87.6989 13.94973553933154 23.552018701088873 4.932452288647237 
C -94.2351 103.499 -86.4215 -4.394697859710815 34.3040526048014 7.221886151872418 
C -93.5284 104.514 -85.7059 15.68276200855808 -52.00612081382286 -35.367026148391176 
C -92.1315 104.527 -85.7664 28.273164794167336 27.834835530878827 17.103380365608114 
C -91.4396 103.472 -86.3955 13.561340014492165 26.53167037684739 5.133459628426732 
C -92.1709 102.507 -87.0456 15.672389631863915 -25.553188954466336 -31.338811026400546 
C -93.5339 102.578 -87.2055 -51.5486867876534 -31.005687806361877 17.617080414615288 
12
Properties=species:S:1:pos:R:3:forces:R:3 energy=-145433.2193733343
H -177.75 195.948 -162.343 -11.5454987831268 -7.313020056762857 14.21081064422398 
H -178.898 196.333 -164.4 -0.13534368514788409 5.895904615084329 -4.67511489169352 
H -177.589 197.068 -166.478 4.2757042751527505 2.73241273083721 6.449448251255552 
H -175.083 197.442 -166.224 -12.363023971575556 -11.942697843415754 12.38424186756146 
H -173.914 197.038 -163.96 -21.11867478147554 2.894318807427794 -9.024733764319771 
H -175.311 196.507 -161.998 3.609743617947624 -8.246277821891667 22.14221740362546 
C -177.16 196.266 -163.19 8.412942598342054 20.6415086930915 35.49038355440054 
C -177.823 196.577 -164.363 -10.89031486759271 -25.972558125041573 -9.09798548782825 
C -177.092 196.937 -165.494 1.4642375984262974 3.4428428631089747 -8.916880968494034 
C -175.71 197.074 -165.357 47.191626887960055 17.047043193507612 6.079009614524073 
C -175.031 196.917 -164.087 -12.579012974457154 0.2610964496712788 -8.577417163319463 
C -175.803 196.557 -162.951 3.677614085546863 0.5594264943831536 -56.46398143157811 
12
Properties=species:S:1:pos:R:3:forces:R:3 energy=-145430.52898810763
H -98.1651 106.938 -90.3213 -13.178064864931791 -5.026096576693222 -1.1844205918931476 
H -97.8883 107.189 -87.7404 5.188290807798118 7.6732191287573865 -11.770680270761245 
H -95.4859 107.546 -86.8408 -17.036125339132035 -9.988742240827692 -25.312181499144646 
H -93.6368 106.867 -88.3461 36.88226235256641 0.9602351939378035 24.9198763223148 
H -93.9213 106.418 -90.6125 51.68221142331588 -15.186248063978542 -43.08378032523051 
H -96.2007 106.458 -91.6983 0.1770845859864132 6.544283103632272 1.5937541589514392 
C -97.1886 106.902 -89.8493 -0.1720567047490449 12.391991208100658 44.41711276668616 
C -97.0237 107.145 -88.445 -10.789451301015337 1.5363817650772995 -10.360678569540966 
C -95.7267 107.258 -87.9249 9.08436396146654 -7.6671192652939375 41.57151934606107 
C -94.6306 106.883 -88.6943 -20.610676160060176 15.141708625470157 -51.94257147811725 
C -94.7712 106.669 -90.0908 -61.27920700902664 9.043478037602572 63.69201250811375 
C -96.067 106.712 -90.6282 20.051368247781674 -15.423093287426848 -32.53996236743946 
12
Properties=species:S:1:pos:R:3:forces:R:3 energy=-145430.97676552873
H -141.449 155.401 -131.764 8.120579605136415 -25.01687411228042 5.0192116996969585 
H -143.59 156.397 -131.533 -6.815174435148046 7.571602565815452 -9.198456547639218 
H -143.889 158.759 -131.953 5.273774275401751 24.191797615407246 3.6257522020760375 
H -141.784 160.364 -132.145 7.003216007604573 -19.04287843799665 11.31922278266639 
H -139.469 159.24 -131.929 -19.025245279034465 -7.5232720574212495 5.493083577213685 
H -139.377 156.729 -131.546 -9.9126089721761 13.174318856245744 -11.889726031445358 
C -141.488 156.472 -131.756 -1.0218824726847526 0.7953479632361945 9.414457408731279 
C -142.731 157.063 -131.717 -9.932652905325918 23.683563015603614 -1.1058492751698494 
C -142.83 158.48 -131.84 -11.428415556274727 -39.04410780028813 5.701816541111447 
C -141.66 159.267 -131.889 -48.48921275396748 33.69118115585028 -25.79139075719189 
C -140.432 158.655 -131.839 48.00826982555017 -2.278534981986347 2.8035584361670174 
C -140.353 157.259 -131.732 38.21935147509752 -10.202142596364672 4.608318777962454 
12
Properties=species:S:1:pos:R:3:forces:R:3 energy=-145429.85913493935
H -110.946 126.137 -106.237 35.52876383839315 -10.309666919760513 -17.712588813346446 
H -111.695 128.168 -104.933 23.72617430909031 11.340542659262296 2.182173977922719 
H -113.872 128.149 -103.964 -10.836480963721476 9.4404802515978 11.413610580508559 
H -115.513 126.477 -104.496 -11.349278602912223 -5.652899051299204 -7.354643561317778 
H -114.842 124.492 -106.084 -21.619793269178825 -1.3087574860869626 0.011979164212239232 
H -112.631 124.335 -106.823 3.774418586681901 -5.588457978166585 2.7350867572971778 
C -111.939 126.169 -105.877 -31.478973888281608 6.212099053862466 10.841442438980236 
C -112.296 127.303 -105.135 -46.36234309801372 -30.377531124120736 9.078047092751572 
C -113.616 127.307 -104.592 38.959750862678725 18.058892434317514 -23.435542614612633 
C -114.542 126.366 -104.992 -34.670805709720206 29.81358309408709 48.348336027816394 
C -114.208 125.323 -105.793 -7.625601298812159 -41.04252576301655 -8.440132289118377 
C -112.908 125.158 -106.152 61.954170419617185 19.414242015144435 -27.667767575272613 
12
Properties=species:S:1:pos:R:3:forces:R:3 energy=-145430.23498575867
H -115.717 132.505 -108.552 39.384236851069815 38.60254598882673 15.173783898958266 
H -114.791 130.241 -109.295 2.8208726092676817 5.339937160693959 2.2523307084997044 
H -116.456 128.54 -109.917 11.646275784767777 -21.132877360150058 -3.57356777528055 
H -118.821 128.945 -109.736 -14.835221317779073 -18.876347659324523 -6.368732970080093 
H -119.716 131.223 -108.94 2.4608051634093195 -5.238599265697965 -8.820053936759113 
H -117.99 132.817 -108.262 -19.884389228753957 50.63961740023209 17.83005150293342 
C -116.335 131.713 -108.82 -15.450216572224566 -23.612075793812398 6.548959981839861 
C -115.861 130.475 -109.191 28.488600018620197 -7.383757839652652 -17.890269867319272 
C -116.764 129.5 -109.549 -26.05675379098865 -7.9571319611853175 3.701331692298892 
C -118.141 129.727 -109.458 -8.616491152624304 21.32414318003215 -14.078362734071769 
C -118.649 131.001 -109.132 11.605510814650557 -17.79022451726402 31.67842424502699 
C -117.691 131.913 -108.683 -11.56322680777271 -13.915229332698006 -26.453895931867372 
12
Properties=species:S:1:pos:R:3:forces:R:3 energy=-145431.4675304537
H -177.316 196.255 -164.116 19.993076842596462 -12.692774716557842 10.552068900632946 
H -177.344 195.231 -161.833 29.270162812190254 -10.091790089772813 -10.197219067379402 
H -175.242 194.34 -160.734 3.251611432037231 3.6855519716324627 -10.609262235529057 
H -173.052 194.39 -162.086 -19.045810973444766 5.936343484413746 -3.7695590920331425 
H -173.048 195.563 -164.29 13.596812665278636 -4.772753025024282 -5.984076339000488 
H -175.133 196.388 -165.309 4.069256388411689 9.525855809486197 -10.443043327792173 
C -176.357 195.824 -163.687 -42.933868828525775 -17.741959229027376 51.52008241236854 
C -176.335 195.172 -162.384 -85.63839393754373 52.21580954948414 -20.520026070156728 
C -175.191 194.762 -161.766 -7.732678567673452 -28.10292595308265 27.68677510082775 
C -174.029 194.781 -162.501 65.81580258680962 5.274413432945841 -13.57605605367984 
C -173.979 195.405 -163.76 -22.386092174237703 3.2332525505945577 9.358602865796723 
C -175.166 195.946 -164.317 41.740119382459426 -6.469023785091986 -24.01828590823408 
12
Properties=species:S:1:pos:R:3:forces:R:3 energy=-145430.50470024926
H -24.7304 28.9949 -24.3827 -3.054473426332625 -6.175776169385619 16.257155936190777 
H -27.0888 28.0869 -23.4957 -2.9040354250832174 -23.252781503276392 16.132138380716242 
H -29.1467 29.1302 -24.4391 0.8485747267315983 -2.2990603584810656 -4.6108113738023 
H -28.9946 31.0911 -25.9024 -2.5524584579181475 -6.677648839274512 -7.287998046859625 
H -26.738 32.0629 -26.6053 -13.13546187219242 -27.52030005574481 24.53611735776743 
H -24.7559 31.0241 -25.6301 -1.2130818865882398 -0.23216715941966645 -0.903927667363465 
C -25.7266 29.4228 -24.5494 -27.00257177264251 22.969762779917556 -19.739548302844256 
C -26.9978 28.9059 -24.1744 9.997088049353305 25.773399480273646 -38.043003283981015 
C -28.1577 29.4799 -24.7815 10.176937970020271 -29.61369398355449 47.242497425035964 
C -28.0679 30.5689 -25.6106 -61.52708866895519 18.130172137425582 -4.8029724885745395 
C -26.8843 31.1517 -25.9039 53.1066327084622 48.023084287884714 -34.23514810124957 
C -25.7376 30.5887 -25.3707 37.25993805514498 -19.124990616364943 5.455500164964357 
12
Properties=species:S:1:pos:R:3:forces:R:3 energy=-145429.24510604862
H -86.5439 93.3593 -78.7009 -16.378014817255064 -14.304811864404975 16.19698619046783 
H -84.2142 93.4892 -79.0078 26.139615408258365 -23.26696748045626 -5.0149320715399615 
H -83.2927 95.3563 -80.5868 9.107042788981792 9.70651090264377 8.878230317302812 
H -84.6848 97.4852 -80.784 4.269293726575106 2.1014195646527236 -5.976043587231165 
H -87.0267 97.4562 -80.0495 -3.316509046272771 6.639604142638077 -0.5779656206249025 
H -87.9857 95.4103 -79.1301 -16.880055873732566 -1.3071020799059803 2.7615270091720836 
C -86.1504 94.2985 -79.0388 22.98480017660885 21.290608160835742 -34.79074202201028 
C -84.7818 94.2984 -79.4088 -21.28504547430638 60.668975197725146 -1.2515179041700366 
C -84.2499 95.4715 -80.0595 -23.960631288950864 -33.099997188019486 -5.445783547308934 
C -85.1034 96.5871 -80.3177 79.93937830574421 -9.162656610243898 -5.201497296793535 
C -86.374 96.5959 -79.8871 -59.04016816863771 -14.147979916072575 8.358195612264973 
C -86.9324 95.4136 -79.378 -1.579705737012972 -5.117604015213324 22.063542920471114 
12
Properties=species:S:1:pos:R:3:forces:R:3 energy=-145432.58571382498
H -112.658 128.21 -106.17 21.476855586048842 1.5893761076475799 16.9272586663115 
H -112.995 127.549 -108.459 -0.2440063967484129 1.4412848462492927 -4.000989856582902 
H -115.295 127.535 -109.327 -7.160098946241975 -4.205230930356337 -28.424430498507235 
H -117.258 127.925 -107.882 -17.353264877284275 3.7840047640222036 -10.032025894847784 
H -116.961 128.581 -105.461 24.678238010196342 4.37790307622854 -14.297849909040686 
H -114.447 128.8 -104.684 -5.274676685218174 2.2481139288581757 22.82531080331113 
C -113.673 128.198 -106.514 10.79885130445133 -7.410304815421748 -12.471283504020258 
C -113.855 127.846 -107.845 15.888238707862019 8.656571903997664 9.652915348802889 
C -115.135 127.886 -108.329 -34.43482376399379 -15.420052842263495 -6.829219299623374 
C -116.262 128.126 -107.524 28.37999066896676 11.612370789404844 43.62847417893134 
C -116.052 128.492 -106.145 -27.74573412326217 -23.365549527340068 -18.04903826142069 
C -114.732 128.486 -105.675 -9.009569484776499 16.691511513152303 1.0708794125071157 
12
Properties=species:S:1:pos:R:3:forces:R:3 energy=-145431.90794135348
H -134.597 147.779 -122.283 -38.77409990545204 8.143538286418652 12.249034551833926 
H -134.087 145.893 -123.75 9.254934832444258 -0.1470038634986016 6.256172464699557 
H -131.716 145.376 -124.425 -4.1627228033006896 20.04742657862295 10.759408524801016 
H -130.021 147.434 -124.147 -2.163676355417599 -20.36936513455057 4.542634964373051 
H -130.503 149.175 -122.741 -8.433074282249319 11.992376630339884 0.05941674935839031 
H -132.827 149.505 -121.765 -2.4955354902206497 3.7339038248055036 6.913748181284534 
C -133.625 147.702 -122.681 59.522978765203334 -6.558968311472736 -8.643737762810863 
C -133.264 146.579 -123.44 -34.55834125584444 -15.629295709211272 0.6910751611499906 
C -131.961 146.32 -123.848 22.460909181527633 -3.393555397130207 -24.354772116760767 
C -131.008 147.34 -123.648 1.658745453049657 13.06082273805948 -12.439569905951348 
C -131.358 148.513 -122.946 34.20731213800288 -27.477012844261584 1.555735550378028 
C -132.596 148.617 -122.361 -36.51742790610091 16.59713438769955 2.4108536376444842 
12
Properties=species:S:1:pos:R:3:forces:R:3 energy=-145433.1514149562
H -110.2 125.394 -105.235 -3.7142939021587207 -14.099949420403151 9.260912556339914 
H -111.393 126.975 -106.511 7.308915930120751 8.153605907103854 -14.452512990678947 
H -113.911 127.116 -106.325 -16.403009553274227 22.435876499234976 -25.09349119591901 
H -115.06 125.877 -104.632 -33.51553141333019 9.72951938840996 6.364519747901704 
H -113.835 124.487 -102.934 -6.730231701941639 -9.103024041455038 3.695720387106622 
H -111.466 123.937 -103.491 13.877483462965301 -11.738849276408727 11.558751519143032 
C -111.295 125.41 -105.062 21.114535080202035 2.210644355429317 2.4949793401498184 
C -111.952 126.346 -105.835 -22.236293330532387 -0.42270607100022595 -3.860471248387878 
C -113.345 126.452 -105.725 20.857273575795297 -0.9922357606999781 19.281596072877456 
C -114.0 125.814 -104.687 10.025660407469909 -32.927693832492764 15.369666120174575 
C -113.343 124.916 -103.803 21.450652498383246 21.832197535036705 -33.77326250287136 
C -111.98 124.674 -104.085 -12.035161053699374 4.92261353142402 9.153592194164077 
12
Properties=species:S:1:pos:R:3:forces:R:3 energy=-145431.89892859303
H -26.9044 33.0629 -26.7111 4.594628473980044 -1.1281391533818332 -8.632987109202848 
H -28.4691 32.3571 -24.9215 -4.460606979299063 -2.5497915463844585 -17.95949335673263 
H -30.9821 32.1011 -25.4955 16.379894343613845 2.5326754053985683 -2.022180630680218 
H -31.7586 32.4756 -27.8772 -5.857374917639856 -1.817483015803862 11.015183009615379 
H -30.1238 32.6339 -29.6455 -1.2426100164683598 13.038845916603783 -13.171507274544373 
H -27.802 33.1311 -29.2203 8.081643171072974 8.447318364660466 12.845970937561523 
C -27.9437 32.8784 -27.0143 -18.720046958820976 -1.7488073757140163 21.910933680885474 
C -28.8388 32.4653 -25.9793 15.285712361720991 17.801393765701462 2.758447431914196 
C -30.2028 32.3629 -26.2576 -41.77649088559917 4.340259187105839 -11.316905688341432 
C -30.7142 32.6063 -27.567 35.54893584021599 -11.680719142885842 -13.380427598167492 
C -29.7828 32.8279 -28.6308 -22.49800166386369 -8.977503697856765 42.56319539922708 
C -28.4421 33.0544 -28.3153 14.664316045266228 -18.258047521622295 -24.610226429892567 
12
Properties=species:S:1:pos:R:3:forces:R:3 energy=-145429.59229809797
H -88.0596 96.6268 -82.4664 -6.3771831308578015 -15.338908293869185 25.6587116119356 
H -85.8808 96.7867 -82.8936 11.80154719260292 -0.01942374874247462 10.118939462633556 
H -84.1467 97.0937 -81.0893 5.491227767275836 -3.717154102522997 5.73309968614046 
H -84.8257 96.5524 -78.7149 29.527523925564907 -0.20599727474337384 34.47548556767996 
H -87.182 96.0226 -78.1759 -0.41136843597416983 -4.876706841248963 12.620206025972175 
H -88.9429 96.0545 -80.071 -20.92101145704731 -0.8294106727983179 17.252845993599355 
C -87.451 96.4228 -81.5351 5.667192938194306 7.62779981103246 -10.599131766328387 
C -86.0729 96.5949 -81.8144 -38.94090816624906 16.142839229840302 -33.15299390223187 
C -85.1542 96.7526 -80.8132 24.003288829458377 -14.618329905081053 12.769564930069224 
C -85.5207 96.4239 -79.4919 -29.887513107234195 16.18819095576557 -35.76663123958357 
C -86.8642 96.1698 -79.2048 -29.931337495651512 0.6731740066312849 -11.357988458499127 
C -87.892 96.2236 -80.2036 49.97853995409666 -1.0260731642632572 -27.752107911387373 
12
Properties=species:S:1:pos:R:3:forces:R:3 energy=-145433.71007212478
H -108.649 124.303 -103.393 -6.805131716704822 -7.65225262683335 7.196496537444754 
H -109.877 123.162 -101.483 12.008911719012964 -9.069058569218729 23.225435284121918 
H -112.403 122.955 -101.493 4.433733902742166 -1.8956914712869162 -7.554123563589317 
H -113.632 123.646 -103.608 -23.161981999921075 1.617196655220669 -3.0596198896746487 
H -112.444 124.531 -105.463 14.3125695056915 7.86074605487971 2.361604117939206 
H -109.934 124.961 -105.409 1.6828437083576282 0.5290196711075409 -3.566652066937076 
C -109.742 124.095 -103.396 5.183345934034008 11.2682075754228 -28.301121711160782 
C -110.422 123.481 -102.345 -47.485054748465494 7.25289062895549 -12.272715398133515 
C -111.863 123.341 -102.384 18.52534225790389 14.910580245287269 -7.8724797541353135 
C -112.575 123.809 -103.536 39.62963658754793 -31.305495384097753 62.012810456190074 
C -111.822 124.33 -104.555 -34.698275254263514 10.970527360644434 -61.68244901336882 
C -110.452 124.501 -104.562 16.37406010406482 -4.4866701400811655 29.51281500130351 
12
Properties=species:S:1:pos:R:3:forces:R:3 energy=-145434.9300155963
H -73.4959 84.8076 -71.6475 -4.49735201606848 -4.404501042302638 6.626356149906029 
H -73.3811 84.4047 -69.1129 -15.563537188895939 7.688964460613465 -14.939050622793868 
H -75.4901 84.2395 -67.8532 4.110355760064034 -6.203855225946856 27.650386996193344 
H -77.6855 83.9245 -69.1016 -13.266272163479348 -1.974529597745688 14.831885603175131 
H -77.6775 83.8933 -71.5653 -22.331935727041806 -4.39388557229393 -7.36813701900646 
H -75.658 84.453 -72.8347 0.0460667760163403 -3.536732616111595 -1.111515128130261 
C -74.4021 84.5302 -71.0667 4.771021726296319 -0.009263634015641743 -11.218687688518907 
C -74.3663 84.3959 -69.6747 54.007893464291975 -4.25358159770833 13.316969570682463 
C -75.4903 84.1568 -68.9184 -56.97754985444912 11.412965493859236 -33.21795792244601 
C -76.7427 84.06 -69.6075 28.650188295170306 -13.996506693049529 -13.50276045479264 
C -76.7606 84.0218 -71.0218 4.172186841073199 13.606344294850798 25.321126147298767 
C -75.6138 84.3216 -71.7429 16.87893408702253 6.064581729850708 -6.388614445746535 
12
Properties=species:S:1:pos:R:3:forces:R:3 energy=-145435.81961823502
H -126.866 141.407 -116.925 -2.4236166295684924 1.4353450686271283 1.9043918403054474 
H -124.491 141.926 -116.837 12.014869283950826 18.632548781259256 -6.18797826795461 
H -122.758 140.126 -116.528 11.704114206313209 0.5007639272103686 1.7995213844117826 
H -123.466 137.808 -116.261 -1.1533781685365847 -13.736184584521647 3.1132842211362286 
H -125.946 137.249 -116.232 -3.34836731450936 -2.2683772389016075 5.711261605747212 
H -127.581 139.067 -116.266 -21.977902924489335 -3.112189708310264 -8.976781532839416 
C -126.137 140.603 -116.759 -0.45101517684449316 0.8794001448366429 2.5239240460750363 
C -124.775 140.892 -116.752 7.9614127751633585 -20.9760643849544 7.789424848035013 
C -123.812 139.862 -116.522 -20.46773966275124 37.75002840711536 -11.6027300642964 
C -124.245 138.564 -116.36 -2.0251155377704273 -4.601250098703974 -2.154711548305688 
C -125.627 138.294 -116.337 26.325758481219367 -32.089511641413125 -1.0089214486459706 
C -126.554 139.289 -116.509 -6.159018146355788 17.585492513577314 7.089314916331365 
12
Properties=species:S:1:pos:R:3:forces:R:3 energy=-145431.27656747025
H -50.8008 54.9121 -46.3044 17.626933401691065 -2.714407224066408 2.8618107092576963 
H -48.4105 55.6382 -47.2817 -18.962645785987135 3.601722724388766 5.3208134246762615 
H -46.5204 55.2935 -45.9789 22.43857305629483 2.0912286185786804 -7.494495738084643 
H -46.5416 53.4894 -44.1203 20.43873210831055 -1.0820711915444465 4.217680865524056 
H -48.5252 52.5918 -43.3758 -12.44446260358941 -6.959723649080291 4.343707554709203 
H -50.7945 53.2876 -44.3544 13.085768855415735 8.297259826145954 -6.257537344724136 
C -49.8073 54.6333 -45.8563 -38.74299700522211 -38.47785334831895 18.74966995438482 
C -48.5965 55.0426 -46.3633 22.990436384043093 24.63453813298892 -11.595490626807218 
C -47.4028 54.7554 -45.6827 -8.661472902383052 -21.184210367434122 5.454501703643163 
C -47.4161 53.8019 -44.668 -8.418715175196654 17.34921055512612 1.7328829848799079 
C -48.641 53.2929 -44.208 42.646034485896905 -18.341239982963998 17.898401042235463 
C -49.8191 53.6857 -44.7449 -51.99618600509488 32.785545906179784 -35.23194571551562 
12
Properties=species:S:1:pos:R:3:forces:R:3 energy=-145432.1686309263
H -177.454 197.247 -163.215 -5.691734690573687 14.905777670048744 -8.714684250204849 
H -177.683 195.023 -162.559 -46.161996260557146 -15.758747049578856 18.92254961894017 
H -175.937 193.392 -162.38 13.474224857128483 9.875973030942964 -8.966112700883613 
H -173.557 194.174 -163.161 30.71991797817505 -23.334373106205245 -1.2085366345168171 
H -173.303 196.338 -164.314 7.886646758178437 8.932255138362544 -4.1956269657003356 
H -175.08 198.017 -164.222 -10.565171037376269 7.586963691652448 -3.600696989183501 
C -176.605 196.595 -163.4 23.826854073405467 10.998626576163463 3.869158573374897 
C -176.744 195.306 -162.919 33.851166202345446 -10.942583487682505 -14.351586575586108 
C -175.691 194.371 -162.87 7.064222942986385 7.674637370729059 7.895022212230213 
C -174.405 194.788 -163.308 -53.842599496971395 32.443316766324656 -15.682074232351082 
C -174.289 196.08 -163.933 -3.4005161666734507 -30.50581680239956 30.96528095420072 
C -175.343 197.008 -163.89 2.8389848399326727 -11.87602861253667 -4.932694196140734 
12
Properties=species:S:1:pos:R:3:forces:R:3 energy=-145429.41697599713
H -178.267 195.256 -164.122 -0.9152747889578934 7.2176942744728665 -3.402545106484096 
H -179.403 197.465 -164.732 -1.390652659203738 -8.299059902494616 -8.339884163664163 
H -178.076 199.492 -165.304 8.46795520833356 -20.343433599904632 7.985735150649128 
H -175.58 199.37 -164.878 -0.34025949109680514 -6.590630919236644 -3.7966859342940005 
H -174.512 197.194 -164.625 23.146949346513974 -1.7602718935920532 3.6823229809227103 
H -175.737 195.057 -164.309 0.42081350060993356 -9.354410988397172 2.8747978213595022 
C -177.645 196.137 -164.394 -60.334214358821185 -0.10951887439613728 -28.437516033755905 
C -178.311 197.365 -164.845 -4.937081734012965 -45.594135021069896 46.23756507839058 
C -177.586 198.508 -165.023 17.107019650399977 39.17700750825908 -13.396065020308335 
C -176.179 198.438 -164.857 -16.20260105312324 21.024711507568036 -4.1411669483165205 
C -175.588 197.217 -164.634 13.12991578715771 -29.292266516497932 -6.656223424605462 
C -176.291 195.976 -164.486 21.847431778021722 53.92431323946805 7.3896632284644665 
12
Properties=species:S:1:pos:R:3:forces:R:3 energy=-145429.70820281835
H -178.009 195.55 -162.987 8.91960361361691 -2.284134428968152 -13.798631106653971 
H -179.155 196.814 -164.858 -20.462097526211757 1.5422100755210886 6.64518698812523 
H -177.834 198.516 -166.081 -8.923420771565754 16.27327835913966 -13.94511676635523 
H -175.478 198.78 -165.637 18.450628417045014 9.756943871753503 -12.51527034992095 
H -174.233 197.047 -164.351 40.087638621998686 -0.5532495525516792 4.77128972185284 
H -175.623 195.451 -162.9 15.927719433785825 -7.619978135409422 7.0431188858209515 
C -177.414 196.133 -163.738 -31.82122555873662 -3.446910229298638 30.552509691928478 
C -178.117 196.965 -164.606 35.75336071625164 -2.687216347469037 -25.888354158347166 
C -177.34 197.864 -165.385 -22.0431195245864 -13.757913569378614 26.61998914257332 
C -175.985 197.957 -165.164 17.652375192244776 -19.657870134979 -0.5143368349091697 
C -175.286 196.984 -164.384 -13.039574010726366 63.66340101790262 -34.12935626240274 
C -176.016 196.157 -163.621 -40.501887417294924 -41.22855974044128 25.158971048288404 
12
Properties=species:S:1:pos:R:3:forces:R:3 energy=-145432.5577295248
H -80.2197 88.8517 -77.3099 0.7660332811444537 -8.189194768352886 -4.756309244571785 
H -78.4882 90.0162 -76.1242 34.85655034680956 1.5731837212569515 -9.442627773513102 
H -78.825 91.2247 -73.9665 -26.845401865311846 -5.441707880371944 -12.100595844869002 
H -81.2894 91.4508 -73.1782 2.5019472246193413 -3.511631156198243 1.323466410348358 
H -83.0196 90.102 -74.2237 -4.671135276261301 -9.679172984236626 4.059990382753954 
H -82.5045 88.527 -76.0574 -8.202285046885743 -4.699947170229304 -17.428438816709207 
C -80.4332 89.3151 -76.345 -46.148992546960685 -25.021286552394635 1.5042317848632598 
C -79.4479 89.9758 -75.6737 -3.9549681417663303 39.85170173747204 37.14664589817871 
C -79.7191 90.7399 -74.4874 48.750787089520514 -12.158421222382923 -14.922932943129172 
C -81.0139 90.7793 -74.0107 -0.5064914428652008 15.538519922276894 20.060992371395468 
C -81.9922 89.982 -74.5862 -11.009272877519379 -5.614651579263808 -28.973981475214725 
C -81.7243 89.2138 -75.7505 14.463229255476612 17.352610304066577 23.529561622109327 
12
Properties=species:S:1:pos:R:3:forces:R:3 energy=-145429.89264109763
H -138.194 150.822 -128.258 -8.398723418172883 -12.612479216032861 -10.246578868442008 
H -138.854 152.723 -126.866 -49.32983180729778 8.205764245836319 5.010395120215866 
H -137.232 153.958 -125.43 2.4509996091754047 -6.46796366107637 -8.47754612895805 
H -134.736 153.527 -125.818 8.511650342256802 8.851715358701973 11.11983171697334 
H -134.094 151.874 -127.451 34.61729790663677 -11.094054339063455 -12.129851235908415 
H -135.607 150.477 -128.669 -20.40315984855617 -3.4035625409420356 8.498870748838144 
C -137.439 151.369 -127.711 -6.706058739907736 0.5808163344208066 -12.014313133879995 
C -137.857 152.415 -126.926 77.1435668384743 28.38522013978204 46.16104523207782 
C -136.865 153.176 -126.138 -46.26604968574974 -5.422733557806112 -11.050703093243714 
C -135.513 152.949 -126.297 -4.090381790355962 -38.17115615030262 -44.057849307497364 
C -135.137 151.946 -127.281 -25.133206714410033 37.030129493786895 49.565624021656745 
C -136.078 151.145 -127.904 37.60389730790701 -5.881697293125624 -22.378923886011318 
12
Properties=species:S:1:pos:R:3:forces:R:3 energy=-145430.1655496378
H -116.314 130.556 -108.163 -9.387278390344374 9.350675652100541 -9.254199623395397 
H -115.602 131.316 -110.339 16.139415764478912 -1.6254143950732542 -5.49482080504688 
H -117.023 132.42 -111.959 -5.499140751119457 -7.379629996589615 -5.041546639108709 
H -119.678 132.474 -111.359 8.596147206749706 8.174861749363247 -14.17564749273066 
H -120.298 131.875 -109.225 -31.752013927533728 -3.5233174226119846 8.562675036068766 
H -118.725 130.63 -107.579 -9.048532006902965 0.509128708872726 12.410041776071228 
C -117.057 131.025 -108.866 7.9923389880573605 -49.40685444173428 42.44953682355744 
C -116.662 131.37 -110.123 36.93428313605747 25.083278905066127 -25.523756876090985 
C -117.479 131.959 -111.068 -30.280608040881045 8.87553376024296 -8.202017051329221 
C -118.862 132.067 -110.752 11.121417159712577 1.275784546066618 8.003930388787378 
C -119.293 131.649 -109.497 38.723382339291135 -27.584444673615796 32.31581254411551 
C -118.394 131.029 -108.53 -33.539411477565594 36.250396422091654 -36.05000926671951 
12
Properties=species:S:1:pos:R:3:forces:R:3 energy=-145433.16178210362
H -55.5451 59.2559 -48.8225 13.736574719645963 -4.919905116153701 -3.991440439695042 
H -54.3225 57.0292 -49.1823 -2.014306778931132 8.728819237079717 -3.9837444611029382 
H -51.9563 57.0019 -49.76 11.159722736979251 -11.610430786172689 -4.497512101909765 