12
Properties=species:S:1:pos:R:3:forces:R:3 energy=-145428.1706372859
H -107.4 121.77 -103.072 10.941602813677008 -7.200121592384055 -11.967966504096669 
H -109.436 121.822 -104.376 -1.6775502032058331 -2.6751340168257474 -41.481986299583475 
H -111.629 121.892 -103.308 -0.2719929592680187 6.424676449593141 4.100507516272445 
H -111.686 122.449 -100.809 -27.330121633762403 1.7722546152674319 8.671667405920234 
H -109.565 122.681 -99.5483 -2.813739895672688 5.067478173754647 13.815974925280798 
H -107.397 122.069 -100.561 -30.613407531774005 -0.8823765556634812 -32.06719448931707 
C -108.363 121.894 -102.591 29.50106944383744 9.904091219598739 -13.719302050281929 
C -109.525 122.006 -103.341 51.871058168263005 -22.36526797083926 -4.315932068335884 
C -110.708 122.066 -102.719 -74.98628324431864 4.056940451022229 19.632862354928328 
C -110.773 122.31 -101.345 46.23139406566434 14.982776588064318 15.9448403180559 
C -109.552 122.473 -100.611 -24.67944399020068 -30.21628199238994 -21.682245720416383 
C -108.352 122.094 -101.237 23.827417338402583 21.130963444980928 63.068775797394736 
12
Properties=species:S:1:pos:R:3:forces:R:3 energy=-145431.19828133166
H -103.601 114.976 -99.0904 6.530240610799036 -4.5346449021614035 -19.832641184103597 
H -105.982 115.597 -98.4168 36.987515828658104 2.202458632744988 25.948995860846637 
H -106.29 116.423 -95.9527 -8.395687716293716 -7.84306309143357 -13.399154084134596 
H -104.427 116.759 -94.5321 -12.730109106387395 23.144631066367968 55.214350168693144 
H -102.151 116.578 -95.2757 4.242514329880887 -10.148186552925642 -3.7278917120994994 
H -101.69 115.34 -97.43 8.811957150653276 4.817152536649173 -8.987265376711957 
C -103.753 115.468 -98.1461 -5.228032414352165 1.725102812993499 33.75647720595745 
C -105.058 115.735 -97.7055 -50.759562013269495 3.4778233981611275 -12.078424548761673 
C -105.304 116.18 -96.3802 -12.13374310058319 9.002089325614868 -10.245126237659987 
C -104.26 116.479 -95.5149 14.255025167765611 -25.246153797451743 -51.82247507998589 
C -102.965 116.254 -95.9496 23.70815457246695 -0.2845045571301585 -15.661008121459137 
C -102.703 115.698 -97.2376 -5.288274495158953 3.687293942749844 20.834164295240146 
12
Properties=species:S:1:pos:R:3:forces:R:3 energy=-145431.41923976876
H -29.6103 36.0072 -30.3463 -18.61455157523578 6.869083045745215 7.867260955709452 
H -30.393 35.8684 -28.0078 8.935870706733473 -9.580109494007912 9.314510481822886 
H -32.6295 35.1449 -27.489 -18.888971910186086 -5.880615824331171 30.45493559293423 
H -34.3891 35.293 -29.4079 -23.388963563904184 -5.358336360052214 12.986976918206679 
H -33.7041 35.7755 -31.6298 -22.929404546419303 2.3740493098227393 -16.761364673541372 
H -31.2666 36.1733 -32.1345 0.9736800329635773 1.7241079091354448 -25.369087865347492 
C -30.7071 35.9402 -30.0847 22.24958401282211 5.5236279557306975 -68.50274145215377 
C -31.1154 35.7191 -28.8096 14.97656407160145 1.0883619721963893 37.52147681606662 
C -32.4274 35.4091 -28.4958 1.8507476678016583 15.794922892245928 -28.983580696586547 
C -33.3447 35.5035 -29.5384 -18.06450492533083 -16.381332744543307 17.328112427065918 
C -32.9866 35.7765 -30.8382 23.84678416773482 4.9289126128232885 -14.604121397301299 
C -31.6527 35.9716 -31.1551 29.053165861419092 -1.1026689031230046 38.747622893124685 
12
Properties=species:S:1:pos:R:3:forces:R:3 energy=-145429.40850798268
H -119.508 135.835 -110.337 1.241254623012154 4.321874217600142 10.103791784584935 
H -117.709 134.371 -111.409 26.459400513165455 10.20917807263385 6.702752670829957 
H -118.376 132.525 -112.766 28.35270966996985 -29.32116023211815 -20.72440114170842 
H -120.839 132.032 -113.24 6.280898019341153 2.694994147713352 -9.715265819430442 
H -122.432 133.488 -112.492 -48.81830299662684 1.1372320291667717 -0.2391409729944218 
H -121.862 135.244 -110.667 -8.966847909932476 3.026980165368384 5.820133021851932 
C -119.771 134.98 -110.959 20.16877994706364 -16.12578593736988 3.0666612950490575 
C -118.752 134.208 -111.564 -40.7754077140709 -6.00427442888636 -14.465956643883676 
C -119.14 133.155 -112.414 -24.45033624908112 20.867100474808048 26.154710910180935 
C -120.505 132.919 -112.679 42.60343149315754 -27.46534317934249 -20.939807906456164 
C -121.464 133.73 -112.161 11.87702114475263 4.587582325321449 38.36100965731828 
C -121.103 134.62 -111.139 -13.972601726572146 32.071623530925926 -24.124486855341974 
12
Properties=species:S:1:pos:R:3:forces:R:3 energy=-145432.05793974915
H -60.7693 64.6397 -54.0108 11.695738752261432 23.563907742901577 -20.559382284870644 
H -62.1469 66.2895 -55.5014 41.260467813161824 1.2853161756387796 1.1495444090930915 
H -60.8167 67.8222 -57.1154 -9.354288848829377 6.6292697122174005 7.049234164958005 
H -58.4626 68.12 -56.922 12.341241624771495 6.875101087556453 -3.6675393499353817 
H -57.0616 66.5408 -55.5167 -4.20250472777032 1.6281631282591553 6.438567157332417 
H -58.2434 64.768 -54.2078 23.18753407183212 -27.2682869952901 25.480538442228458 
C -60.2598 65.4418 -54.6568 20.726976745021528 0.09426565827437591 13.289560503012526 
C -60.9826 66.355 -55.4565 -34.15477196489342 -2.0926385598030275 -9.529353981573518 
C -60.3093 67.297 -56.2952 -5.708664657655269 -20.36813188066216 12.259559899443099 
C -58.9193 67.4168 -56.2311 -3.2324189183988334 -16.297109804712157 7.09586302015041 
C -58.165 66.539 -55.4171 -7.208474515835947 -10.475466046846918 -1.0445031949687236 
C -58.815 65.5355 -54.6459 -45.35083655948627 36.425609782466616 -37.962087599048694 
12
Properties=species:S:1:pos:R:3:forces:R:3 energy=-145432.89861642424
H -171.549 189.297 -156.995 -3.317018949322787 -2.9583804178255177 -4.700228209817336 
H -169.791 190.254 -155.679 5.544809091264158 2.694663303641365 -4.860905775803696 
H -167.278 189.78 -156.256 -9.54995287897312 -1.0789406239815567 -0.07437469603956094 
H -166.908 187.821 -157.853 21.79302749422709 11.258952242154482 -3.4101983955185244 
H -168.622 186.838 -159.21 -6.797358659744692 15.159565904610142 13.156708227883444 
H -171.079 187.624 -158.775 -14.587394205618677 -15.135441561239148 -10.212275437207435 
C -170.524 189.004 -157.268 -2.0262432535856956 4.37760780678795 28.268107267403803 
C -169.495 189.586 -156.51 18.436976059336097 14.708901730795427 -0.7341856852972839 
C -168.13 189.328 -156.806 -14.199282092009431 -13.893438685146622 3.843376452180826 
C -167.865 188.326 -157.762 -16.835874553180236 -21.492970894071444 -6.98596349719833 
C -168.887 187.661 -158.484 -28.548021511262775 5.656189704703378 14.172003464654614 
C -170.264 188.008 -158.188 50.08633227304902 0.7032914895715396 -28.462063715240518 
12
Properties=species:S:1:pos:R:3:forces:R:3 energy=-145430.41370276044
H -142.546 159.739 -131.714 12.358519037419716 -2.98252966343849 42.79818481273753 
H -145.084 159.611 -131.801 -4.802514761650571 2.9432445979873645 6.059966514337539 
H -146.167 159.939 -133.944 -5.977168931404341 -0.8253029886930718 -5.364163484674957 
H -144.954 160.502 -135.917 -15.16096635926612 4.328061831821035 -45.947623531762 
H -142.342 160.893 -135.786 9.110053588618978 5.6388802748869 -25.898079076749916 
H -141.275 160.562 -133.579 9.371049243501302 0.07859621896527581 -1.0755811929566832 
C -143.131 160.081 -132.523 47.06333409475496 17.196817134970953 -67.0552263021259 
C -144.487 159.973 -132.644 -23.19367425321115 -21.96921441368127 3.8315206133574273 
C -145.083 160.079 -133.898 -7.478893890575195 9.262392461006005 -1.034436760104568 
C -144.358 160.394 -135.06 4.030672143199073 -2.5116590989905787 40.1200886149375 
C -142.985 160.605 -134.982 16.914494488566447 -6.14938216453153 68.06322755363975 
C -142.353 160.444 -133.682 -42.23490558577414 -5.009903004481547 -14.497880132277825 
12
Properties=species:S:1:pos:R:3:forces:R:3 energy=-145433.97475032916
H -19.0079 21.9286 -15.7874 -12.936100452025535 -2.485320827725676 12.257613967105712 
H -20.1496 19.6547 -15.834 -0.6476978272672236 -4.556401160902441 -6.3138460571195205 
H -19.0864 17.674 -16.8662 17.842807379931145 17.055577547579627 -3.332439366212112 
H -16.5982 17.9079 -17.5834 8.901658583719483 -8.294203965308997 -4.010680386175301 
H -15.4555 20.112 -17.1969 12.63849257233101 0.49530796457519594 -5.877678545598869 
H -16.6679 22.0658 -16.2122 1.9991519859562343 -9.801568689377241 -4.671039224756529 
C -18.5163 20.992 -16.0572 13.606941948658259 -5.209706735898795 -1.8012645413502097 
C -19.1081 19.7406 -16.1954 -34.436691432142105 -4.189331441764206 -4.23855131594332 
C -18.4795 18.6307 -16.8099 -19.407140132896654 -8.23205034097517 29.504815452523488 
C -17.125 18.7388 -17.1249 -7.939159657403818 23.899916065546503 -12.116706409607419 
C -16.5119 20.0078 -16.9688 10.254302120918183 -19.721490619947406 14.605768502734957 
C -17.166 21.0823 -16.3688 10.123433724399977 21.039272204198607 -14.005993261421924 
12
Properties=species:S:1:pos:R:3:forces:R:3 energy=-145433.65082771852
H -10.3785 9.71287 -7.94495 5.820984441363356 5.547985905847862 9.48682213809694 
H -8.45136 11.4577 -8.03903 -8.362053088129398 4.536929979318104 -2.838923177238252 
H -6.04905 10.4561 -7.79442 -3.7143022029060466 12.90884316944956 -2.6965867053788672 
H -5.75041 8.09035 -7.45263 -7.328598187851373 4.8082624362631945 6.012047485846489 
H -7.62657 6.58481 -7.12312 -2.246211871899511 -7.941065271825623 8.06638402584598 
H -10.0239 7.46585 -7.20571 -11.699431399000389 -13.506332147784844 1.3965390748788082 
C -9.33875 9.43286 -7.65853 -28.66224809521371 40.682674136588666 -10.881846919499306 
C -8.30778 10.4047 -7.79352 30.450587187156536 -45.40766584732109 4.160838533657724 
C -6.9786 9.88646 -7.67379 -12.48462873407812 -10.39182653097067 9.478675547507146 
C -6.77933 8.51063 -7.39004 13.423972132817822 15.91234763555941 -14.394854813932591 
C -7.85324 7.65093 -7.207 10.354439965015072 -21.180126399749806 1.5255990943010282 
C -9.16037 8.10474 -7.29666 14.447489852725766 14.029972934625238 -9.3146942840851 
12
Properties=species:S:1:pos:R:3:forces:R:3 energy=-145428.76529962342
H -163.813 182.604 -153.84 -7.53689358378296 -7.25377406563517 9.225744661562405 
H -161.451 182.607 -153.433 18.424114644265224 7.891228770702303 -10.146642613923033 
H -160.486 181.736 -151.242 7.781077853688354 3.666647612508377 -4.260404812010174 
H -161.863 180.723 -149.467 3.4562390834718406 -1.8659854682498143 12.49805815743029 
H -164.366 180.486 -149.913 6.455173395268291 18.11849654340126 -23.510233924871624 
H -165.344 181.301 -152.194 -1.357097481049538 6.66054337067804 6.298151715568442 
C -163.466 182.184 -152.869 5.674212998789877 -5.937253009156451 -9.117594224653985 
C -162.083 182.206 -152.663 -14.950866143701683 -14.923286317801043 59.87333077922731 
C -161.572 181.719 -151.397 26.447722547499037 7.576853381409571 -22.44089607972502 
C -162.307 181.156 -150.353 -77.96524477222808 16.114231297092307 -64.03158303718251 
C -163.745 181.071 -150.677 13.745910688745445 -16.406674926129106 12.713577575177455 
C -164.303 181.547 -151.926 19.82565076903419 -13.641027188820265 32.8984906175794 
12
Properties=species:S:1:pos:R:3:forces:R:3 energy=-145431.03028018805
H -172.955 189.742 -158.208 -12.437253997447437 0.07355173623325587 1.984923319218691 
H -172.062 188.684 -160.181 9.471528604059596 -0.6326035111656999 -6.903119667244315 
H -169.594 189.045 -160.75 -0.7129713467745201 7.7580669962800695 8.28385293339367 
H -168.163 190.684 -159.236 18.93223303360629 -9.673885408190063 -11.484151517104628 
H -169.254 191.73 -157.378 2.0685237030004044 6.97690501022374 4.235394660317406 
H -171.527 191.146 -156.766 -16.097187491190255 16.63553127318681 13.096519509023748 
C -171.945 189.989 -158.529 -25.197856492046842 11.512589877442968 34.84543564614026 
C -171.413 189.365 -159.608 44.62436938338098 -3.2540980987718444 -29.4516195203753 
C -170.023 189.606 -159.882 1.1073576395410598 -31.514767896571698 -23.21940775574231 
C -169.189 190.398 -159.066 -48.87998585000518 16.644085786216618 -8.28354343410052 
C -169.849 191.105 -158.049 5.212257436969922 -10.36331583554849 13.017331565356244 
C -171.192 190.857 -157.747 21.908985376905992 -4.162061115156716 3.8783830752960022 
12
Properties=species:S:1:pos:R:3:forces:R:3 energy=-145430.86737561363
H -146.161 166.145 -139.016 18.475814070252675 8.022302314261562 -18.187216058869826 
H -148.303 167.252 -139.37 -6.689224824330924 6.9948524117632624 3.3873393232041966 
H -150.373 166.432 -138.111 -11.800589049197306 2.5010839468974533 1.984045811644245 
H -150.106 164.182 -136.746 -25.177399893172826 -6.045837456567907 10.306128429757614 
H -147.934 163.168 -136.6 5.34033203910246 -54.617821705405554 37.79062024735978 
H -145.95 164.155 -137.603 13.830376721891138 -9.287261499994235 -1.0919526383253404 
C -147.063 165.704 -138.642 5.1955753064870684 -28.287745649755706 48.86364523598373 
C -148.264 166.383 -138.7 -40.608910138388076 -6.840918610068628 -0.9031402821885562 
C -149.435 165.894 -138.02 46.80614729707414 -46.3094116039589 9.816646403984112 
C -149.289 164.638 -137.264 3.9757449123229174 61.772315275560494 -36.836406652696354 
C -148.039 164.028 -137.159 -14.699118707161398 43.06118331936748 -26.21112160318632 
C -146.934 164.568 -137.782 5.351252265120131 29.037259257900683 -28.918585845025184 
12
Properties=species:S:1:pos:R:3:forces:R:3 energy=-145430.83886475643
H -18.7289 19.3228 -17.5915 -21.080123739252226 8.17455817917533 -13.0215388584294 
H -19.4684 19.2602 -15.3298 -42.03134517328142 4.700260226985593 16.92659223488334 
H -17.7525 18.8912 -13.4702 3.6006459988784996 -3.039177520653188 9.30011105685464 
H -15.3471 18.6395 -14.1488 7.205307187820615 -2.4739831926996203 -1.597373284785507 
H -14.6769 18.8867 -16.5509 19.617973185867854 -7.217793883440777 -7.987031253053006 
H -16.3818 19.3183 -18.3187 -12.802212955122815 -5.141939434730606 20.056298891693228 
C -18.0099 19.2351 -16.7963 1.391712783219353 10.500273423140728 -49.8837857375511 
C -18.4329 19.202 -15.4971 44.7494735037919 -23.86357065046977 13.746841558266985 
C -17.4601 18.917 -14.5208 28.700476594112363 11.400860632616064 -19.31701773335892 
C -16.0849 18.7897 -14.9454 -38.257761404616296 -5.6023878180003965 14.40114322294244 
C -15.7275 18.8527 -16.3149 12.483782057850886 16.59286068864779 49.62100779363582 
C -16.6862 19.1625 -17.238 -3.577929225089758 -4.029960650571144 -32.245247891098515 
12
Properties=species:S:1:pos:R:3:forces:R:3 energy=-145435.89874378045
H -26.5933 33.2666 -26.9943 -13.096845609811549 -10.337221843419176 7.546447743955005 
H -28.413 34.2153 -25.4558 5.0220007507984405 -0.5157621918071218 0.13410213051214712 
H -30.7104 33.2092 -25.5799 8.433848623392715 0.32164328648703044 5.1521078502047635 
H -31.2147 31.2298 -26.8241 15.984328158905987 -1.198921997471397 -8.389318671452703 
H -29.3055 30.0262 -28.0961 4.209590008523452 3.9333778979718113 -8.759107478250675 
H -26.9977 31.1842 -28.2281 -1.7506003371363985 -3.2882390725230404 2.247553035503158 
C -27.5813 32.7393 -26.8691 28.925149364517836 27.156698863167733 9.24458380052893 
C -28.5668 33.2961 -26.0393 -9.568787274655461 1.1299582028672397 -11.400374445986976 
C -29.8471 32.7372 -26.0906 -25.30257516284655 -4.377582904545973 -4.276606684969175 
C -30.1619 31.6068 -26.8868 20.140208774768087 3.4572992074874556 5.336704612521066 
C -29.1027 31.0055 -27.6318 -14.568489846494593 -1.3221643788392472 23.57532245629566 
C -27.807 31.5825 -27.5935 -18.427828635783015 -14.959085069375314 -20.4114143488612 
12
Properties=species:S:1:pos:R:3:forces:R:3 energy=-145431.6454704482
H -62.5257 67.3215 -57.2228 -12.58508200657339 -5.467622813523229 4.771837571176345 
H -64.6804 68.54 -57.7717 17.5699985757831 14.130754679550403 -2.600358513272453 
H -64.5005 70.7883 -58.8678 8.192428502346825 1.3827408611811625 8.831602647931454 
H -62.3172 71.9242 -59.0339 9.568916529149535 -7.859371688286761 -1.654245262178003 
H -60.2818 70.6151 -58.5574 32.162676799985206 12.227681472248719 -1.0581436944671783 
H -60.3833 68.3299 -57.6036 44.836307621567556 -27.5256824974751 11.22789321730327 
C -62.5268 68.354 -57.5861 20.26395275843863 -14.10177084153065 11.824946999314474 
C -63.687 69.0709 -57.8978 -21.7678204962406 -63.25998114040346 14.003549284244984 
C -63.5803 70.3007 -58.4679 -29.95547488305402 37.43378416385326 -20.40579118545846 
C -62.3338 70.8872 -58.6416 -18.28991171896412 16.783250186776485 -4.727607631961109 
C -61.2099 70.1584 -58.3011 18.750339943276124 28.250699414440465 -11.072971626676859 
C -61.2404 68.8959 -57.7698 -68.7463328115359 8.005518203168707 -9.140710620135414 
12
Properties=species:S:1:pos:R:3:forces:R:3 energy=-145435.5535894815
H -31.5928 36.9371 -31.9178 -4.145812995176899 0.7335263687954026 0.4005181733982453 
H -32.1899 39.3873 -32.302 24.19541674124131 11.162051689514675 -12.238563751992897 
H -34.3981 40.1995 -32.0232 -5.799336092337554 30.855605551426436 -5.737546515065019 
H -36.2393 38.7407 -31.2686 -2.4606201753260577 -1.8202803676526715 6.992254277850273 
H -35.7702 36.3003 -30.8219 12.679370195447651 7.826721291591076 -2.9692176363699296 
H -33.3624 35.4425 -31.3047 -11.983539891901 -12.429683715886268 7.650712245293883 
C -32.6164 37.3245 -31.7651 -5.424941556594787 11.71493482336297 -13.43150565392655 
C -32.934 38.6629 -32.041 15.453041197957445 -3.5286702188161074 14.757622374313945 
C -34.1936 39.1756 -31.82 -24.038319168994484 -28.517702438744603 10.29509199327738 
C -35.2217 38.3348 -31.3436 5.101921531872712 12.951861199555221 -12.564550700973442 
C -34.9383 36.9887 -31.1301 -30.25591213176561 -20.11151902036788 3.087382332016457 
C -33.6676 36.4867 -31.3875 26.678731159756225 -8.836845162778248 3.7578040479987016 
12
Properties=species:S:1:pos:R:3:forces:R:3 energy=-145432.25443390547
H -178.579 195.546 -165.591 16.51900301058452 11.828679963969009 10.57221481439277 
H -179.602 197.694 -164.952 2.4980328293446825 -0.47303943114204994 2.435786710969226 
H -178.174 199.696 -164.161 -3.4818160576248585 0.5269100954657301 -6.2139406339477565 
H -175.736 199.495 -164.605 11.54572171748355 7.328659850545794 9.940069030151038 
H -174.688 197.355 -164.837 32.91333353961905 -7.807732739172685 -5.511866982591022 
H -176.077 195.247 -165.221 7.995915424333751 -9.605622433824417 -2.4172630004010824 
C -177.892 196.375 -165.242 -44.99404316553743 6.872348796907413 8.876780058162883 
C -178.5 197.618 -164.887 -8.61547846145055 3.179208756398081 -6.839934378599992 
C -177.743 198.756 -164.533 13.657640541682419 -34.00566326903719 -5.655845816599879 
C -176.336 198.588 -164.632 -29.247047602529875 39.44909889067396 -3.8368141185092224 
C -175.748 197.386 -164.923 -14.802738121850952 -25.207690505985873 17.242241195980064 
C -176.532 196.223 -165.078 16.01147753176673 7.914843211023281 -18.59142569318598 
12
Properties=species:S:1:pos:R:3:forces:R:3 energy=-145434.01354250804
H -20.6963 23.7196 -17.126 -12.398093443206198 4.67614537018297 3.3319496221198874 
H -23.0055 23.2896 -18.0146 -4.179480826330523 -4.59141371312285 -11.21739158611503 
H -23.2792 22.9663 -20.5678 5.683213380533185 -4.620531548920863 -3.5856844947341893 
H -21.1983 23.0855 -22.0025 -2.2923592837470164 2.6078944060232723 -2.478693273896513 
H -19.0909 23.7459 -21.0931 16.751572163338967 -3.6773781071586 -4.656740594577241 
H -18.8397 24.1664 -18.5927 -6.620754331282131 -9.302632112399603 -5.609324871122709 
C -20.9223 23.6292 -18.1985 37.701779720373366 2.4959540850500823 -11.755977275605083 
C -22.1703 23.3261 -18.7402 1.2938754319527712 -4.365132969378253 6.233311020743137 
C -22.2725 23.1061 -20.135 -8.06340524337705 17.14607110910493 17.271088664579466 
C -21.1197 23.2644 -20.9193 -46.0201803641372 -30.84379003051862 -30.070065514066247 
C -19.8883 23.5223 -20.3937 17.280289450079636 25.733941284949726 -4.466724630078209 
C -19.7841 23.7837 -19.05 0.863543345802188 4.740871040366762 47.00425411857378 
12
Properties=species:S:1:pos:R:3:forces:R:3 energy=-145428.304640295
H -142.808 159.071 -132.605 -11.185474026826114 -11.53765339108283 -0.26656308469587026 
H -145.227 158.878 -132.808 -16.31055582955898 -10.615220986287966 -2.1072111146440693 
H -146.52 160.468 -134.395 -58.56035295603568 -0.03562443588042873 -3.682709558583885 
H -145.151 162.295 -135.528 -9.241597903133721 10.549001181585524 -3.220042504136 
H -142.794 162.177 -135.51 0.8083433760853262 2.670093091556867 13.666146436049317 
H -141.498 160.678 -134.005 -7.984652496033628 -8.120235717032916 3.360352407826832 
C -143.389 159.693 -133.306 34.51112541923399 -0.0011822635834094746 3.2855010117265584 
C -144.771 159.618 -133.462 -13.490795520432961 21.052489365583444 19.429094423752463 
C -145.52 160.616 -134.158 100.45666275764133 -4.402368936060942 -5.826159364410496 
C -144.714 161.599 -134.818 -19.677520375541366 -29.774150986826193 7.491419718289893 
C -143.319 161.542 -134.759 7.439184301189405 21.322554179829776 -37.28149983923438 
C -142.606 160.607 -134.025 -6.764364374945509 8.892297712378024 5.151671468059634 
12
Properties=species:S:1:pos:R:3:forces:R:3 energy=-145434.60913064104
H -3.22594 2.84748 -4.27985 10.659056047094701 10.16372555191962 8.423574669845413 
H -0.712045 3.17592 -3.91898 -5.907226834436781 0.6657317937431428 15.410850870942275 
H 0.255384 2.52432 -1.60672 16.13030747302037 4.581729112635682 -4.576443908231213 
H -1.13471 1.71645 0.115924 -11.044843951452714 2.476909799042503 -2.376750610166778 
H -3.59486 1.6187 -0.174166 -9.919474876035618 -2.6053721646572625 2.4870663563061965 
H -4.58483 2.18692 -2.43103 -18.899477098837465 -1.4951045202679711 2.408920749338609 
C -2.7479 2.78769 -3.27308 8.894983597048459 -5.997923171361044 -13.187495699714995 
C -1.36853 2.91548 -3.04467 20.820830923392748 -3.4271556364841764 -21.548984337026237 
C -0.808504 2.52707 -1.80408 -2.3183252072033027 13.779209729553589 -35.30987075976855 
C -1.63843 2.06136 -0.814947 36.587454196362785 -8.216454422570957 36.872584867005514 
C -2.98639 1.9932 -0.998888 -31.05270561085755 -6.207587004780347 9.102949334729104 
C -3.53479 2.33954 -2.228 -13.95057747227459 -3.7177102525938293 2.2935984667406606 
12
Properties=species:S:1:pos:R:3:forces:R:3 energy=-145430.58794661806
H -170.931 188.102 -157.47 -38.51093894133872 13.265482406662345 -13.553666566499947 
H -169.148 189.7 -158.598 -2.7088421658949526 -10.049724273967529 14.923493836484187 
H -166.846 189.43 -157.814 16.32238202285621 13.720974057957562 -11.531392255957051 
H -166.102 187.544 -156.5 -0.44683160019226786 -5.005481077798965 8.186355912767448 
H -167.939 186.096 -155.42 10.214501223311808 -3.7089055313232016 2.2585064645101323 
H -170.307 186.394 -155.958 9.91195202731631 5.642760281351209 6.081224728239025 
C -169.92 188.139 -157.165 39.384536863794594 -3.5919278425442704 -20.411219874209568 
C -168.921 188.932 -157.81 -17.575583792912347 8.266069175158574 15.323177191865666 
C -167.589 188.774 -157.4 -11.154016566103257 5.938200480172642 -28.97522421567151 
C -167.181 187.702 -156.628 18.0703913410059 24.654755196011532 -0.07216076814565374 
C -168.168 186.953 -156.067 -17.561739332193888 -61.97728088599337 38.32791694937223 
C -169.532 187.111 -156.303 -5.945813451291488 12.845079200134519 -10.557010216933918 
12
Properties=species:S:1:pos:R:3:forces:R:3 energy=-145432.74430641785
H -140.699 158.09 -128.828 4.446883472327349 13.190000153765308 27.370995699415904 
H -142.834 157.102 -129.638 -3.6388353656826142 4.4360569261723555 1.2775585343522553 
H -142.861 155.996 -131.891 -5.685334814385461 -11.786914160888502 -1.6801175057716118 
H -140.826 155.722 -133.275 11.775665462440939 17.865200424574176 26.281797723381693 
H -138.582 156.861 -132.356 -14.875195345258245 -5.229285827198367 9.757674337518177 
H -138.591 157.663 -130.076 16.518496664997645 14.191888497784197 9.729830073524157 
C -140.705 157.571 -129.759 -21.5604061653466 -16.25228814079469 -4.082724943858394 
C -141.908 157.045 -130.22 2.18703940167671 -31.805828858268224 -42.718399215262565 
C -141.901 156.303 -131.476 10.952425802368861 39.19226902512817 25.721229283330718 
C -140.725 156.25 -132.259 -11.43221848437101 -6.399985283761895 -12.682620530936243 
C -139.531 156.845 -131.751 -4.675011725262469 -29.936110425363868 -41.88921622010518 
C -139.545 157.381 -130.487 15.986489910673846 12.534997668851343 2.913992764411091 
12
Properties=species:S:1:pos:R:3:forces:R:3 energy=-145431.41006130437
H -59.6908 63.7136 -55.0259 3.2020630854282226 6.209377594560636 8.596387928422157 
H -60.0248 64.5989 -52.7544 22.323268561012583 12.523429984542256 3.838109035092054 
H -57.8249 65.3742 -51.4138 -0.08646651325122234 5.729020461740331 16.55735483487201 
H -55.6577 64.7962 -52.2309 12.507835251959087 0.2293152598027158 -9.803514621714626 
H -55.3687 63.5361 -54.55 -11.80406231904265 10.949898817718664 -1.812207297967765 
H -57.5006 63.2006 -55.9312 -1.0755788213145898 -1.0619074904689252 6.4491209646467045 
C -58.8085 64.017 -54.4165 -20.590249206712315 -5.923722791015324 11.042667969832296 
C -58.9611 64.581 -53.1282 22.531540240523235 -4.484941212995297 1.4377451704253437 
C -57.7433 64.9162 -52.388 -40.61690731552601 -19.19046216798701 -44.71607841147898 
C -56.4798 64.6135 -52.9352 -13.9728068736132 -18.530875298907088 -22.475014522876336 
C -56.3573 63.9543 -54.2353 -14.749997544984634 5.005444317346522 44.42459529748989 
C -57.5667 63.6607 -54.9235 42.33136264134254 8.545421339841475 -13.539166346742745 
12
Properties=species:S:1:pos:R:3:forces:R:3 energy=-145433.07567860573
H -145.072 162.337 -136.865 14.662555101012101 -7.041631866228578 11.369462462945537 
H -147.281 161.471 -136.577 -7.874436358862119 -14.39441487432432 0.8346662316766238 
H -149.351 162.98 -136.733 -12.615947742594019 -11.053894137679976 1.5397577975968249 
H -148.936 165.453 -137.084 -13.389763567266973 2.344255556028193 -0.7544359513092032 
H -146.678 166.302 -137.267 5.106984987741478 36.07685032610815 -4.411264965552153 
H -144.711 164.923 -136.934 27.32258336936949 4.145387285421188 -1.459812114280576 
C -145.872 163.05 -136.705 -33.951624218124905 30.598935771721923 -14.191118899924986 
C -147.21 162.55 -136.662 39.74575218442602 -7.565602311319913 -0.2578686447825721 
C -148.336 163.35 -136.771 9.060100877033097 40.30325764871376 1.403911324325204 
C -148.13 164.736 -136.953 42.545798218653154 3.0554125966014927 -8.106394813777595 
C -146.787 165.27 -137.055 -46.80460335807154 -40.586469660903184 18.930434143078674 
C -145.673 164.46 -136.862 -23.80739949331579 -35.88208751995978 -4.897336569995779 
12
Properties=species:S:1:pos:R:3:forces:R:3 energy=-145434.5047621722
H -70.4849 81.8123 -68.1494 -3.9837219305030533 -5.646945043824481 5.361187073848119 
H -71.5283 80.8586 -65.892 0.03801623693131831 9.308823284083637 -13.175505863113338 
H -74.0483 80.527 -65.7702 17.007567210867993 -2.1563290082131807 -7.4005099335772515 
H -75.41 81.0637 -67.8 -16.761161898142408 -8.243918038009035 8.48373848646313 
H -74.3957 81.9337 -69.8038 -13.123196925107964 -2.2769839280574606 -12.248232936806462 
H -71.9663 82.1588 -70.0586 -1.2094544600068462 6.014266157024583 -7.005707417623373 
C -71.5615 81.5719 -68.0488 -7.313260778435306 -7.66924188496726 48.46828538413798 
C -72.1423 81.113 -66.7925 23.673349538929685 -10.367098604686982 -15.785779026155991 
C -73.5103 80.8149 -66.7099 -18.24855620996572 13.33220737113062 5.5788955172472114 
C -74.3307 81.1054 -67.8102 14.042045778700157 9.507926195262375 -14.195277574335233 
C -73.7626 81.601 -68.9908 -20.257060766516087 2.8564057369275253 3.1821578933408485 
C -72.4109 81.8246 -69.1185 26.135436574890324 -4.659114608312432 -1.2632527892466867 
12
Properties=species:S:1:pos:R:3:forces:R:3 energy=-145426.12850765287
H -60.2129 66.8826 -54.284 -1.721245337129075 6.381031120153853 0.07557949022285486 
H -60.7604 64.7491 -53.7081 3.5826250764340926 -17.86266039589247 -4.444781011611818 
H -59.0896 62.835 -53.7012 15.782276110784483 14.10419347392875 -7.891372255048935 
H -56.7333 63.4483 -54.5135 19.565402181411194 -14.998182775101084 -3.7015973162133196 
H -56.1993 65.8491 -54.9208 45.599353819495754 5.87605278494405 -17.954734656872823 
H -57.7836 67.473 -54.9215 -8.263590809171285 20.215981553821532 3.5813313456723073 
C -59.4175 66.133 -54.3481 -19.133024553955313 56.66977830256462 -12.709480563461627 
C -59.7245 64.849 -54.0912 -47.65727628234001 -30.004699500517322 40.33264822335248 
C -58.7592 63.8585 -54.0407 -11.689681578355659 -25.77681938817189 -13.5751073968426 
C -57.4951 64.2047 -54.5314 -5.730981809751324 -24.770207918924598 19.872087521217054 
C -57.1924 65.5196 -54.8348 1.1813386429931665 -28.174560216683638 16.755720165359794 
C -58.1386 66.4776 -54.6792 8.48480335376293 38.34009058823611 -20.340292359952322 
12
Properties=species:S:1:pos:R:3:forces:R:3 energy=-145433.37524068804
H -84.9564 95.152 -80.0461 8.128797344989 8.065417581693042 -5.23978627256556 
H -82.4379 95.0395 -79.5788 0.2260732250614505 -4.597003673536283 5.164464105509806 
H -81.5629 93.6171 -77.8925 -13.09026548882425 -10.346747543886107 12.553427699556808 
H -83.0455 92.1692 -76.5511 -3.983832211860383 -16.756688981154827 21.829759486965 
H -85.541 92.2483 -76.8529 -14.987749921533545 -0.4056338053930582 0.13121347044275347 
H -86.5152 93.7768 -78.7172 18.472936082572694 4.433891616941357 4.102470050104483 
C -84.5102 94.5636 -79.2389 -8.417529354150107 -20.040596249394827 12.719814993882302 
C -83.1351 94.4382 -78.9602 -20.741287233411285 38.08977799516215 -35.59114988365209 
C -82.6812 93.614 -77.9549 58.19767551805386 24.170802653778093 -27.857632940498736 
C -83.5313 92.8495 -77.2271 -36.57301801094209 -11.332813477680888 8.575854251180113 
C -84.9359 92.9257 -77.4546 29.06491260470621 6.400548548759006 -10.71065942157738 
C -85.4114 93.787 -78.4826 -16.29671374048261 -17.680955851108703 14.322223274831456 
12
Properties=species:S:1:pos:R:3:forces:R:3 energy=-145425.62366684704
H -67.5111 79.0398 -65.0224 -27.19553331662117 -16.30383341004609 2.926475902568113 
H -69.6391 79.9159 -63.9873 -5.239198105326471 -5.692239850339517 6.903894008387712 
H -71.6178 78.4815 -63.9159 -17.92617771442983 1.1786432717543602 6.584809723719134 