9
Properties=species:S:1:pos:R:3:forces:R:3 energy=-97072.58782416339
H 1.38869085 0.59405355 -0.20570216 44.45085886202885 11.248483813955549 -30.239788522995678 
H 0.17108235 1.11935194 0.98236677 13.452819601417225 -14.324553413187926 -32.49822858152721 
H -0.52877617 0.17079218 -1.93423021 -14.57516720480771 21.756587213466638 21.131710512240257 
H -1.61821698 -0.01452388 -0.50901661 -14.206831028791761 7.63840816611489 2.7067551208530265 
H -0.95146534 1.6993472 -0.8827139 -18.173797307907076 21.22818179766121 -12.261635086274561 
H -0.13627129 -0.95389655 1.56093158 28.694066045534715 9.50948436411754 -53.0570974058847 
C 0.4016246 0.38569419 0.0794417 -95.92057115380314 2.4742559315403265 83.42790729631359 
C -0.83259828 0.63111076 -0.91769057 78.13462982215925 -55.693102885637465 -6.082110536560798 
O 0.42898823 -0.92815605 0.69153642 -21.856007635830363 -3.8377438022097174 26.872487203836073 
9
Properties=species:S:1:pos:R:3:forces:R:3 energy=-97071.80921003461
H 0.57688331 -1.09326339 -0.72968312 9.764757246629216 -29.69714851134748 -50.87812633060871 
H 1.3592334 -0.230567 0.53370919 -14.673744508407339 0.2523118873584429 -16.466965625598807 
H 0.8061408 1.96221375 -0.02121482 -22.47271995915126 -42.94652865401874 -27.518515395069755 
H 0.82430191 1.27174885 -1.66755267 -2.811680124514832 -7.32109431226881 -9.712514714602445 
H -0.70094244 1.51253219 -0.77014514 -45.4912638594607 5.61499428154626 -13.471799853088287 
H -0.98402417 -0.22512151 1.35575707 -2.8148272935723737 24.0771785246899 16.2082835075783 
C 0.40890702 -0.25402506 -0.12718178 14.460231499870936 -3.744431544056767 93.84785675922423 
C 0.27613833 1.11097546 -0.72790149 55.66627249863825 53.45390633104934 44.26811316636622 
O -0.63286147 -0.84484529 0.72375171 8.37297331414707 0.31081199704785073 -36.276331514200734 
9
Properties=species:S:1:pos:R:3:forces:R:3 energy=-97066.57137975481
H 0.6713106 1.32132158 0.16418901 -7.143468991885171 -8.742067229811763 36.28311796805014 
H 0.7762803 -0.30029785 1.24919731 26.932456545802154 12.0434001383308 -2.388556644506221 
H -1.54650433 -0.02973139 1.61761578 17.213707969958 4.898059920834173 26.94036952964578 
H -1.59167529 0.97503398 0.28678535 -27.025573143482426 22.997769501394956 -19.881374871653627 
H -1.57794039 -0.7461328 0.18394112 -3.7054014301306486 -35.228018276209454 -35.0995333799948 
H 1.02783361 0.44417933 -1.40834505 -8.407526953622463 -35.058282223248504 8.774048823437193 
C 0.32429907 0.27747196 0.41837602 46.40379110105374 -34.66812219669186 -53.01269552261771 
C -1.10118136 0.08898512 0.62538935 -46.251483060013925 31.984881907191905 19.228278001161463 
O 0.72430152 -0.38004588 -0.91543168 1.9834979623207392 41.77237964403079 19.156346096477794 
9
Properties=species:S:1:pos:R:3:forces:R:3 energy=-97075.95761217008
H 0.95914803 -0.11758505 -1.12543943 10.654953106273643 9.603196243963176 -12.899343557045652 
H 1.17463096 0.75366278 0.43604644 38.966210029919274 20.044250949860288 23.83142185607678 
H -1.43675219 0.60326859 -0.92661365 -67.80771750691878 -34.216071798073735 -63.196504139781695 
H -1.14677812 1.15795479 0.66405406 -14.423046523493252 -4.189937396318993 19.608300443591155 
H -0.50786873 2.16969673 -0.5425304 -7.086061023379634 -39.19816492737161 -10.553458682899501 
H -0.34567042 -1.05442318 1.19285951 10.229771040928222 4.611279773115688 -11.574888171944473 
C 0.51745452 0.20950472 -0.18385473 -47.82744990326714 -65.40589152490166 3.54109169427871 
C -0.74579336 1.04023765 -0.3383341 82.8481024672455 71.85906325424338 55.37373518973876 
O 0.25345644 -1.15955956 0.41100739 -5.554760501486798 36.89227661130451 -4.130354632014085 
9
Properties=species:S:1:pos:R:3:forces:R:3 energy=-97078.42341502466
H 0.49846706 1.36253348 0.24452123 -0.5574864911509992 44.9487969776853 -15.365926040593758 
H -0.95904518 0.57642684 0.91761438 -34.94208361889715 20.87920770769332 19.059638832668576 
H -1.29022512 0.6968777 -1.69744304 -10.88462529821137 2.185350792506424 4.191314134554037 
H 0.2659889 -0.16347635 -1.74083582 -19.41049244899525 -10.182733077474758 6.559354889133911 
H -1.16223102 -0.91189908 -0.79266807 -10.487189073713104 -19.223052087809325 -15.307328693578535 
H 1.21200626 -0.0732022 1.51161921 -4.505632604436533 0.6462594263377595 -3.490346854233733 
C -0.16326655 0.52323468 0.2096511 31.230802888017717 -38.11586012908099 12.691752538815718 
C -0.67011796 -0.00096352 -1.11818848 47.58395103792664 18.375785321692067 -0.38374829215794765 
O 0.71596233 -0.48585719 0.78013714 1.9727567952810972 -19.513753745728742 -7.954712886250356 
9
Properties=species:S:1:pos:R:3:forces:R:3 energy=-97076.77625011002
H 0.36640111 1.38998012 0.217909 18.239828567063118 29.335583373507323 -0.006852859828007377 
H 0.33546011 0.0291522 1.3406865 -9.806387866110414 6.612390735440821 48.32644932876023 
H -1.91597687 0.42151508 0.87281305 -13.365915520199824 9.146848429872351 -3.8797159381523234 
H -1.41763068 0.97845062 -0.82917358 -24.910113457638563 24.000428629094095 -19.764272671664806 
H -1.6182224 -0.73566114 -0.47800319 0.9534677132251475 -0.7493096469249714 5.970408565617964 
H 0.97156895 -0.70532792 -1.16866061 -4.652903277670607 7.08600054650626 -6.418703468981673 
C 0.12914935 0.34947547 0.3503568 14.779114194961602 -43.830979210692625 -20.99226270045026 
C -1.34370146 0.2533859 -0.04943227 26.932763673453213 -34.73754253239894 7.704371833471278 
O 1.11823283 -0.53947962 -0.22310415 -8.169851655441576 3.1365808614167334 -10.939422088772405 
9
Properties=species:S:1:pos:R:3:forces:R:3 energy=-97080.51862157014
H -0.02021867 -0.36582722 1.45918881 -9.18429784434342 2.400226309425311 6.148995586870354 
H -0.76105588 -1.28702239 0.15035312 -7.606906830013312 -11.234651211447552 -7.798764374597635 
H -1.90690624 0.76215496 0.45367548 -49.13525161759057 5.701160782072706 8.278874856640257 
H -0.50993837 1.83828902 0.32022005 -8.84083426477884 -20.080459995516666 -17.897048020421348 
H -1.04034161 0.77984846 -1.14238503 -11.892033639201943 12.894428328807706 -32.346369966664035 
H 1.66196963 0.32795025 -0.23396528 -38.24251056013662 -34.87578436418459 5.8804924989423295 
C -0.22025254 -0.36552688 0.36494361 55.03301560007589 26.804008410039955 3.865507430372572 
C -1.00377615 0.8828519 -0.0806811 60.459713357640624 -7.45714711840253 39.74867760494785 
O 1.0811276 -0.51793571 -0.27684008 9.409106984169249 25.848217673384617 -5.8803668019113955 
9
Properties=species:S:1:pos:R:3:forces:R:3 energy=-97080.93854684015
H 0.0630161 -1.47847114 -0.15183415 18.535088521085477 10.033261520378288 -7.120065627710477 
H 0.65116549 -0.13296382 -1.33584707 -2.729808667818988 -11.369218183809945 3.373219752002936 
H -1.22777904 1.18232453 -0.57724429 -7.272276431424476 37.06876117184137 -0.8211870038404999 
H -1.86244994 -0.25102409 -1.30932994 14.795824785149572 -2.0107445725072983 5.4176997474635105 
H -1.97285775 -0.05865498 0.39462979 -12.634935109191362 -9.253052934443385 40.41549916823277 
H 1.13827834 1.12687229 0.433106 0.40610339052749167 -33.54234282719266 17.426256905983557 
C 0.18242524 -0.37363351 -0.34626959 -15.968676506912587 -12.224094363582907 24.106567913507572 
C -1.30366693 0.12930037 -0.40578446 33.65867661514332 -6.837224777508627 -43.07124619676849 
O 1.04391538 0.15887695 0.72499185 -28.7899954107374 28.134654966825167 -39.72674347304984 
9
Properties=species:S:1:pos:R:3:forces:R:3 energy=-97074.22321451474
H -0.62729522 0.44029792 1.33773513 11.453764852786806 13.520173051040167 60.74851177278033 
H -1.47255615 -0.168814 0.07475986 -41.264409482320545 -0.07034290448129393 -20.596755806794732 
H 1.25923206 1.26837349 -0.34563885 -30.061132724122594 -15.66888671649241 -9.861506014175065 
H -0.05298288 0.69364675 -1.51512446 6.956888350957993 -19.350372507756255 -61.7249986441611 
H -0.20167437 2.1506799 -0.67462967 -18.015736848970448 5.683558454457732 11.306285475048536 
H 0.68122326 -1.25460133 -0.59339281 -0.4151500192916149 8.829042460291955 -15.918774785631705 
C -0.49152442 0.13646295 0.34929283 39.60013217408874 -58.313705735816605 -38.75522400603307 
C 0.13063877 1.10721813 -0.5768338 48.61201519572706 42.55319299869944 33.905418701046116 
O 0.29693821 -1.13088142 0.27893824 -16.86637031303434 22.817343271699368 40.89704212209963 
9
Properties=species:S:1:pos:R:3:forces:R:3 energy=-97067.62032988532
H -0.24019164 -0.98459314 1.08033344 -2.6853712099206057 23.709410356955246 -42.59575567352323 
H -0.69805982 -1.14236423 -0.54934215 -57.42164457966595 -41.21660903593415 -55.71210329626633 
H -1.41895381 0.807619 1.3374203 -22.232835476360652 -5.365201078090687 16.41990750318755 
H -0.30335422 1.78857954 0.57420502 3.8722855834746466 -0.5560765499266523 -18.745695082236786 
H -1.73980705 1.0771965 -0.39571644 -19.685425058637662 23.259314191421826 -14.65823989822371 
H 1.17509536 -0.36541499 -1.30430893 3.372167928734647 1.0160470473146845 8.330145015408855 
C -0.27500144 -0.40374554 0.01464845 82.73522653346659 6.098491468497827 128.45508941681788 
C -0.98856671 0.94365434 0.35883396 34.55260781108438 -29.37253237149675 -8.772650740423312 
O 1.15168199 -0.47980516 -0.3271543 -22.507010346354317 22.427155971258657 -12.720697244740936 
9
Properties=species:S:1:pos:R:3:forces:R:3 energy=-97079.08217132546
H -1.07168731 -0.55732391 -1.02649817 30.334200037258785 5.122883290512561 15.913547686458518 
H 0.68783917 -0.25111006 -1.28711596 35.337392480437906 -14.140198558365121 -30.89245849791109 
H -0.58245107 1.71053401 -1.12015117 -18.232216781765317 18.283926880142186 -6.5295955241497134 
H -0.95179694 1.38354337 0.69976674 8.480804765193968 7.0109843212805165 -21.82492845202136 
H 0.67058896 1.83588721 0.0382026 36.21185012315254 10.772030404020484 13.575520062566802 
H 0.07048864 -0.39633366 1.35769104 7.927003805855643 -28.135623782620193 -15.905960803402694 
C -0.0562207 -0.22568691 -0.5381278 -53.31190188908299 15.82488384680804 47.34839480195594 
C -0.22524933 1.30616156 -0.17700807 -34.84690962170112 -57.69721041774722 3.4576490246961877 
O 0.2853869 -1.04588572 0.62114903 -11.900221733528365 42.958324015968756 -5.142167112371543 
9
Properties=species:S:1:pos:R:3:forces:R:3 energy=-97078.22081895868
H 0.24229525 0.54374478 1.43745689 12.340359373912861 16.236230938003374 1.1413930752191128 
H -0.32229213 -1.02669752 1.01021236 -21.39219863571465 0.9688122375674932 6.725925985721619 
H -1.97917775 0.78129317 0.51221886 7.517833882101775 9.17675602248737 -21.432271086340688 
H -0.6272398 1.57287827 -0.69436234 -33.754342728073674 -25.545706423662608 16.88501260570714 
H -1.46359672 0.03305259 -1.06750695 -20.36884930239532 -35.47681894744906 -42.393521008960555 
H 1.6998376 -1.06987581 0.16195429 -27.25083052366385 22.287657169163662 -8.162013378323888 
C -0.01341493 -0.06132771 0.55193022 -15.355176572806794 -43.038562597083505 -10.67417289379611 
C -1.16737193 0.61804315 -0.25914041 68.16086687279156 50.12204327386585 60.28167892899592 
O 1.04070826 -0.47058483 -0.30547282 30.102338819669125 5.2695883271074315 -2.3720310424015127 
9
Properties=species:S:1:pos:R:3:forces:R:3 energy=-97072.00040455653
H -0.1623876 -0.29204978 -1.54135473 -16.14689829528264 -6.887712294386502 25.992689808948835 
H 0.01395808 1.27701694 -0.97584823 -20.181940189038247 0.841937686334063 25.14019950112153 
H -1.13453579 0.40057608 1.57855725 25.38964644483151 0.11266367181158554 -18.240702517174423 
H -2.2413265 0.38641248 0.39500765 2.6382253367519057 -12.304776441769064 -21.306546781522407 
H -1.37281935 -1.13865918 0.88505615 5.021086482771552 -3.0773087822260217 -19.738631663175276 
H 1.64828965 0.41912825 0.62695153 -30.963869827155317 -15.001989260660508 -26.841796969330336 
C -0.12391654 0.24248832 -0.53370511 44.923584050593576 -13.507372112842669 8.071637213082193 
C -1.23675744 -0.08723224 0.55098222 -4.303609016020145 35.31195661898943 14.041770668217357 
O 1.22606267 -0.18294607 -0.07397582 -6.376223801631143 14.512602100570732 12.881380739832528 
9
Properties=species:S:1:pos:R:3:forces:R:3 energy=-97073.12968614696
H 0.4039932 0.41349492 1.48678925 -3.793665648088439 -8.568369348734294 -16.513669187517145 
H -0.14651548 -1.15028827 0.6445014 7.9369350571204915 -24.448329839870354 34.04500406807752 
H -1.88995619 0.21473832 0.9440967 -6.321376020765107 -6.435408130064411 -18.88720029354254 
H -1.56602417 1.23185883 -0.50532786 19.45539356292283 1.7026670787927898 11.382908487792355 
H -1.50051771 -0.46463666 -0.76595433 -16.96726471095893 -20.079250458049184 -7.543716798084803 
H 0.83412476 0.61201662 -0.95429631 23.58501535753015 -1.3912467555480592 -13.008984571009586 
C 0.12652405 -0.11142152 0.50187828 -41.46887349045073 -2.2376134834909833 37.2659276372511 
C -1.27577911 0.26416745 0.00105773 -6.918925475973769 30.814711326815143 16.385193777870874 
O 1.10616296 -0.1687618 -0.43108928 24.492760182842453 30.642839610149355 -43.125465492479854 
9
Properties=species:S:1:pos:R:3:forces:R:3 energy=-97076.13433142644
H 0.16572094 0.54900151 1.43821134 12.146480004444173 -18.796220545388152 -6.1888996509077785 
H -0.42706481 -1.09040502 0.9082616 -15.834313495770198 -28.3365421858212 21.20424837147871 
H -1.63914802 1.28430836 0.37537808 -23.91651044527191 53.27745141603864 38.62700947701704 
H -0.49473318 1.09395936 -1.02002824 -18.653469036162473 4.044948242778478 -6.018353682172038 
H -1.90835896 -0.06949281 -0.52791567 -4.0233544415208184 -7.557740317781293 -25.53299205040151 
H 1.74107131 -1.07951778 -0.02657239 -39.74987528420487 29.311137672632718 1.679787847520671 
C -0.04891004 -0.15386131 0.56346259 13.49118328391518 37.12543986040328 -2.9997311835397316 
C -1.12342113 0.62691974 -0.23220021 47.32986397646151 -55.703152719006965 -20.235693457078316 
O 1.04143781 -0.39855183 -0.32095814 29.209997809751496 -13.365320238034458 -0.5353744860959977 
9
Properties=species:S:1:pos:R:3:forces:R:3 energy=-97078.67137890427
H -0.14399243 1.39152608 0.65184919 -9.152508353727532 1.5582056156179895 -5.463854274237296 
H -0.90861473 -0.02456666 1.29933808 -7.439289839262548 -20.069836224760632 13.142058594674374 
H -1.97521815 0.24226832 -1.19503336 19.067933650889184 11.28806533466831 6.2610236586009895 
H -0.17504072 0.55527107 -1.70887864 -18.80124605498343 -14.652874057988075 3.6220239807056873 
H -0.8659984 -1.06642407 -1.1094995 11.790736062121532 -26.900086002873458 -10.652309911160884 
H 1.42595107 -0.12203605 -0.26979787 33.99851039648441 14.861794381611192 -67.81350312780488 
C -0.26484098 0.28904242 0.48666227 4.646267423094119 26.06642060416012 -62.15091829019747 
C -0.88254826 0.00405715 -1.01054759 6.274826615582822 34.69899741928086 44.88618562642751 
O 1.02777911 -0.28161253 0.54019324 -40.38523108601961 -26.850687069716315 78.16929492881303 
9
Properties=species:S:1:pos:R:3:forces:R:3 energy=-97079.9670813881
H 0.49962195 -0.33766201 1.44229934 12.81994216558977 12.743359470761536 10.197714740576858 
H -0.30112653 -1.42229225 0.43016528 -18.420901069229078 -27.96834830833084 -8.752942394629665 
H -1.79862834 0.38218668 1.14057637 -5.730709070910617 7.271189033524791 -1.0412730184379237 
H -0.69400231 1.64606377 0.43473369 -10.729165344829825 -17.682304129638627 -10.136673416384696 
H -1.63635199 0.37665544 -0.66390759 11.370358943656727 14.931735292757706 16.269455272085583 
H 1.57954356 -0.89323526 -0.67649048 2.4682141733081586 0.18203064557156956 -1.4348600678190895 
C -0.00887018 -0.38990774 0.47312661 68.84798494910922 10.22047538974432 -55.282432898259714 
C -1.08779092 0.58730948 0.31150996 -27.594611903268902 11.95201483937849 -0.47861397588187743 
O 0.97130396 -0.13264186 -0.72178604 -33.031112843425454 -11.650152233768948 50.659623387108425 
9
Properties=species:S:1:pos:R:3:forces:R:3 energy=-97068.15378251842
H 0.5814391 1.50368221 0.10036461 -20.512824578941036 -40.64455829068944 14.128998478580463 
H 0.15235665 0.10044681 1.38172478 13.55118820051266 18.56556412198179 -1.6137079697017214 
H -2.11668362 0.12891747 0.86976694 24.853495245950022 11.090103183336353 -11.103951201517955 
H -1.82226542 1.01103238 -0.71796674 5.239419853862176 11.002967867014878 11.380797726329499 
H -1.60214722 -0.62204513 -0.62686621 11.86977814980031 -11.25756127406688 5.017111610623519 
H 1.60126274 -0.40616344 -1.01311158 13.046433985480652 28.991625306566334 -45.47765656295155 
C 0.14153552 0.42280082 0.31322901 30.865704003458845 -17.86891915937616 -11.27653678245376 
C -1.38948224 0.27171978 -0.00248968 -10.185177054651694 -8.760062064193146 -26.475954574975276 
O 1.13874335 -0.62956642 -0.2328875 -68.72801780547194 8.880841495247314 65.42089927606679 
9
Properties=species:S:1:pos:R:3:forces:R:3 energy=-97075.4474374471
H 0.64552414 -0.5832065 -1.3639361 -27.13592446425324 20.408445052960644 10.062369869607927 
H 1.27610432 0.64862434 -0.34524265 35.99798373994426 -4.1128756297879505 21.050854118360252 
H -0.56578497 1.85359902 -1.09283499 15.932286030636087 26.591490305361607 -13.635169232850314 
H -1.64201831 0.691409 -0.6054906 -8.50630110351582 -2.580665583152412 9.496535198289223 
H -0.75837718 1.55140476 0.71156231 8.870516551395012 -3.0565272683852482 -12.93167022459563 
H -0.57536375 -0.93992617 1.11202897 14.80833638301171 3.8021371536449866 -12.330779125677793 
C 0.40047355 0.01207175 -0.41002749 0.6843586707423364 -31.908708320624733 17.41197131983578 
C -0.65538204 1.11458895 -0.31974808 -36.74951561551046 -46.40040083868166 -0.31688340080618227 
O 0.29334914 -1.04885072 0.64762458 -3.9017390066288336 37.25710512866476 -18.80722733634222 
9
Properties=species:S:1:pos:R:3:forces:R:3 energy=-97065.36632024644
H 0.47499958 0.87777496 1.15649451 -9.33590032186054 -19.5133754688149 4.091852208453682 
H -0.22193842 -0.82740541 1.24227047 -6.509421150684774 -20.99066539950056 24.123775362714046 
H -1.62192467 1.08518633 0.4937065 -74.95648711888201 35.13479732627709 51.50015706132338 
H -1.02700734 1.07630639 -1.01440837 28.345014877198796 19.421994913146776 -23.497710468799013 
H -1.54783811 -0.45692085 -0.5756808 -34.425003979907316 -7.473063208489313 1.514667010072892 
H 1.61004176 0.35972069 -0.54813329 -34.86106951081796 -49.658682514105735 6.596729596879046 
C -0.01082213 0.00483276 0.60677734 112.55249041608215 32.06244646184668 -40.107342224508145 
C -1.14325381 0.45572903 -0.14915513 -5.4724396186143105 -34.72866191858134 -42.84205307653357 
O 1.01331671 -0.47905759 -0.39105221 24.662816407485973 45.7452098082213 18.619924530397697 
9
Properties=species:S:1:pos:R:3:forces:R:3 energy=-97078.0192843545
H 0.39441842 0.80993063 1.11571486 27.0718521814661 51.04530219593016 32.86036291346971 
H -0.20730122 -0.77046844 1.22010124 -1.5185553172845265 -9.174660676698114 12.449345814659099 
H -2.01375845 0.84684056 0.48710162 7.173798736792758 15.094827190394838 23.717662485618185 
H -0.96148171 1.21487846 -0.90017676 -8.473373224695246 -6.798748442011247 -2.0684454388113322 
H -1.83415498 -0.39598272 -0.54819425 25.361065785967586 7.138846661445722 -8.684445813517849 
H 1.92140561 -0.20523111 0.06423848 -40.75810421335965 -15.031509089793303 -24.960560656600855 
C 0.04466869 0.03796421 0.51266388 2.638916670422044 -66.12517736874905 6.523399609181495 
C -1.19654377 0.4468822 -0.12187415 -51.97224902144924 1.081062057833833 -55.32608415680423 
O 1.03479795 -0.45856307 -0.38400611 40.47664721631913 22.770056285826126 15.488765242805783 
9
Properties=species:S:1:pos:R:3:forces:R:3 energy=-97079.76230548033
H -1.22130388 0.02937413 -0.84867296 -11.19071179838872 3.80072721242064 -2.379806471003735 
H -0.08663985 1.43700864 -0.4877789 -26.037358501951292 -13.743276980201058 15.554572381784025 
H -1.52472757 0.24341889 1.61007392 8.501494970814155 21.89316652414503 -3.2622589192141955 
H -0.60273993 -1.03648797 1.32536806 13.588439582868952 -38.14981611474893 -4.3635024654392485 
H 0.29863723 0.39095282 1.78575104 6.6110946330369424 7.182169447560348 12.34420261992473 
H 1.53594781 0.12406729 -0.46648714 -10.119059230559253 -16.319943974784508 -12.773790010458079 
C -0.3691216 0.35096287 -0.23702869 46.60261178682341 17.596198105985557 -71.33596320180021 
C -0.51848429 0.01881145 1.1687401 -30.659901203367106 3.080866245365669 38.27393718951227 
O 0.76711051 -0.35254632 -0.88327882 2.703388574901873 14.659909534257249 27.942608876694443 
9
Properties=species:S:1:pos:R:3:forces:R:3 energy=-97072.4853651676
H 0.50418239 -0.79117062 -1.31203362 -5.7194793455997965 1.2411739871809888 21.490512687041946 
H 0.22146797 0.98161213 -1.09956636 2.7231194512954042 -20.602495180660032 -0.6327019343125635 
H -2.05227616 0.62511382 0.06140586 14.57488497939863 33.56300813057087 9.569699171040256 
H -1.78459741 -0.60182415 -0.9842131 -11.739967505655622 -23.77420006147555 -9.834791837638406 
H -1.32369568 -0.79795451 0.70395925 -10.52925370369734 -41.87103758346158 39.30696045092935 
H 0.51859771 0.01592828 1.31545803 -9.860175522960835 -4.869628675422111 29.799680528137348 
C 0.16054114 -0.02325703 -0.55112685 20.058702550954578 75.5732575474342 6.380884078344082 
C -1.30813268 -0.15054235 -0.11926972 16.46853446684339 -5.2646636123011135 -44.53556798848909 
O 1.1081539 0.16617794 0.58610717 -15.97636537057841 -13.99541455186566 -51.54467634087397 
9
Properties=species:S:1:pos:R:3:forces:R:3 energy=-97078.0412097633
H -0.30290593 0.8239386 1.3499492 9.513921706473726 -15.063619937912806 -24.005816999929618 
H -1.53889512 -0.04305369 0.54393748 21.247619776256244 -8.010780876973293 -20.869740112457666 
H 0.12166857 2.01421162 -0.77298637 -2.1557787872475815 6.766954208111173 10.68024785501758 
H 0.90942281 0.50252631 -1.25140634 3.9584236242959747 3.421381873808529 9.877087702726723 
H -0.67861271 0.77000776 -1.69079327 -12.065270235892305 -1.0106954369316081 -1.4727363778669151 
H 1.27747484 -0.72409271 0.31703766 -7.319474480719224 -4.501772756930015 2.427004520298483 
C -0.42746645 0.17558893 0.37656532 -4.752502759012362 -7.0717066596111575 76.0401567971972 
C -0.02525796 0.92481447 -0.81434062 6.133185034856715 19.17622757214424 -62.29472043687038 
O 0.3531426 -1.03680218 0.42340295 -14.560123879011186 6.29401201429494 9.618515866063545 
9
Properties=species:S:1:pos:R:3:forces:R:3 energy=-97073.397478406
H 0.37453214 -1.63392139 0.2560217 -31.048697535720216 38.276771301813525 -8.509679507677438 
H 0.5918748 -0.73102728 -1.21673504 22.29573142466962 7.725997651897194 -19.392842688538412 
H -1.11596915 1.1420651 -0.99460288 6.632359961864707 -20.93140636434136 26.604344605506196 
H -1.69135994 -0.49540382 -1.24317445 -1.140214369098843 4.249330429256452 3.620209674504467 
H -1.87839566 0.01956331 0.42624054 16.968814579066766 19.0662782447082 -13.697701134097988 
H 0.58580261 1.25193207 0.54697853 -8.732395673356107 9.541314172649011 -9.110012084882351 
C 0.17803013 -0.57061933 -0.22365059 23.017413812852087 33.077963447153564 47.37785652585745 
C -1.16652062 0.1219666 -0.46058213 -37.53651302693686 -43.91842402630726 -13.054799952964057 
O 0.93940154 0.36485498 0.6538404 9.54350082665885 -47.087827228471426 -13.837374251886825 
9
Properties=species:S:1:pos:R:3:forces:R:3 energy=-97077.44613895788
H 0.42651433 0.49197361 1.42181683 -3.5271630402659437 1.0540609126039096 -9.098995807359909 
H -0.13588918 -1.12928302 0.92507048 17.033110982031708 -1.880617314143184 3.3085225415242627 
H -2.11666163 0.20065224 0.72852052 19.926806047589018 1.209468689859405 -2.097852614944704 
H -1.30319547 1.28277038 -0.40001948 7.47080659103773 40.65134237289674 6.8607040342303 
H -1.63013333 -0.14755598 -0.89800342 5.743942833790106 -38.43981220914566 -13.482276582034551 
H 0.78973601 0.32284954 -1.27088672 16.468251055613266 -25.28200353933102 45.21304178223516 
C 0.11412754 -0.11136336 0.51831585 -33.437392921288875 -24.214561822037844 32.7313005224054 
C -1.2396706 0.28953606 0.01648544 -39.93826548804908 21.095012908312697 4.019815951517916 
O 1.0949605 -0.19819541 -0.43338235 10.259903939542081 25.807110000984945 -67.45425982757388 
9
Properties=species:S:1:pos:R:3:forces:R:3 energy=-97072.29495430588
H 0.82051019 1.22863459 0.31555207 27.049601435348652 -9.350134917703315 -6.618151454084956 
H -0.53855665 0.82708693 1.22077283 17.214114706576968 -33.52788885445628 -7.969328130649075 
H -0.91930573 1.67986794 -0.82729763 -18.612380336899548 40.35782320417073 -9.342606139878773 
H -0.3404146 0.31175998 -1.72503474 26.923241530449424 -7.956637473808906 -46.51159883567971 
H -1.70814891 0.06746728 -0.82346071 -38.96867890933819 -13.571423050850973 9.775251762891175 
H 1.43935312 -0.88112606 1.10145399 -62.4010316653356 -10.353950220922844 -49.319417926866976 
C 0.10780219 0.38444224 0.33444785 -33.95254560107808 15.258485910492224 32.85250091993109 
C -0.80839802 0.62863747 -0.8392941 27.963979743595353 -22.057662433901275 25.065733496861387 
O 0.60440452 -0.96432834 0.42548038 54.78369909668103 41.2013890228017 52.06761630747585 
9
Properties=species:S:1:pos:R:3:forces:R:3 energy=-97078.23971402197
H 1.4051468 -0.43489809 0.39374816 -0.02035936154820188 6.769855912212078 0.1297964142921273 
H 0.39496946 0.55623945 1.50869391 -12.084121233069297 -15.093844144747251 -32.46393582268205 
H -0.82462605 1.18802294 -0.83080957 -26.39296844649568 17.306331266082907 6.8181852347852345 
H 0.80711 1.91269782 -0.63216958 13.34830252019543 38.81592499958487 19.808272561597015 
H 0.52523711 0.69729535 -1.71977448 -2.765114117837895 -13.349606923346634 30.89072127007789 
H -0.36766706 -1.78431849 0.7160721 -5.976642426859672 36.79526696312843 -17.808317774792265 
C 0.38783994 0.04584151 0.43439234 33.98182115107528 -17.134362312091305 38.07389273642258 
C 0.22373834 1.02643451 -0.64723984 8.485833832252382 -12.86434642049885 -72.49572938831456 
O -0.58140027 -0.93955329 0.19533026 -8.576753103533395 -41.2452181545032 27.047114768614037 
9
Properties=species:S:1:pos:R:3:forces:R:3 energy=-97082.02920556067
H 0.05103736 -1.46098355 -0.13611498 4.7972698751616845 -37.591605086938486 7.14982617851572 
H 0.59715659 -0.35195075 -1.43379525 -4.638111345935954 0.7490594386841496 24.026600885412485 
H -1.09078209 1.2723378 -0.36309485 -8.344366567220117 13.856384149084054 -11.013044974268452 
H -1.86240906 -0.21943164 -1.21942006 12.72956125706389 16.351875763925978 21.343550327279974 
H -1.73765273 -0.05418472 0.67366594 14.797571499551138 6.819112546843635 -38.28135331433739 
H 0.77669302 1.0630477 0.74536687 -15.585869756665598 54.871162885432405 0.610529452384188 
C 0.1458096 -0.42709729 -0.37072793 36.04091164765039 40.41248599695349 -6.213083285331102 
C -1.21460906 0.18461765 -0.3583361 -40.67320416971092 -21.460768737731353 27.810715930792014 
O 1.00803288 0.16625796 0.65650741 0.8762351884634032 -74.00770695625388 -25.43374001462639 
9
Properties=species:S:1:pos:R:3:forces:R:3 energy=-97078.72017988183
H -0.51876973 0.82244964 1.22137588 4.400802466458451 -1.7844223250260727 -13.891069414695615 
H -1.24990521 0.84809079 -0.40446964 7.222703182573491 -13.696231901821314 -0.7247311340931476 
H 1.12908448 0.00077717 -1.21350481 5.245768739745401 0.05079701617102476 11.161148093877205 
H 0.98015795 1.69839704 -1.14492385 -4.64495116173245 -9.546677641242553 30.760439854977726 
H 1.85058777 0.80005384 0.29666481 -26.824451964882464 1.7069609368023444 -20.580845645813184 
H 0.10708009 -1.53692736 0.68030943 47.58290632958463 -10.048785103698663 29.667785210592825 
C -0.38530259 0.41912758 0.16639705 -6.820201130564368 -34.793378102196755 36.68439388109712 
C 0.95128754 0.79236282 -0.4335956 29.4324779970419 1.373397777155402 -29.360918440166845 
O -0.5697311 -1.07542194 0.23615088 -55.595052086582506 66.73834052967764 -43.716202405776095 
9
Properties=species:S:1:pos:R:3:forces:R:3 energy=-97081.09785308763
H -1.33521811 -0.52470391 -0.69675106 -26.5323889844016 -6.6813260703398605 0.8129443617459369 
H 0.30109843 -0.6351487 -1.45960328 -19.73520108288761 22.63532092687512 24.57713372194652 
H -0.30654903 1.93645728 -0.99128752 -2.296872518650183 -0.29481289948781003 6.114669625035897 
H -0.74115047 1.56532494 0.75984488 22.92413238604635 -13.00801101193037 -26.10994379403161 
H 0.97309841 1.31953338 0.0542579 23.78386687464702 7.011261803405409 12.587835483043479 
H -0.00764252 -0.5645774 1.40428179 1.282304190180545 -4.070993616244883 -11.08944149519238 
C -0.30351791 -0.24858215 -0.53579756 69.45957452550903 4.633623013274766 22.176966703573534 
C -0.07891539 1.24017093 -0.14449145 -50.24644183075409 1.7827016986875297 -24.081901649918304 
O 0.35735852 -0.93957663 0.56923277 -18.63897355968946 -12.00776503006095 -4.988264142024119 
9
Properties=species:S:1:pos:R:3:forces:R:3 energy=-97073.16254570441
H -0.22972046 -1.37844298 0.33862293 -27.830765793047075 -2.8516743109517946 5.372026664034625 
H -0.86610222 -0.53777427 -1.09019541 -25.15539579783306 -8.185650349244751 -44.245095194031656 
H -1.95028218 0.35421478 0.77577336 -8.953346151496467 15.239606453610115 24.83852544105839 
H -0.09759698 0.62759659 1.51126318 -43.06547954901912 11.524474175971484 -0.5934986905136496 
H -0.74416768 1.71362375 0.16048152 -15.191606789287901 -29.70572436915612 16.132118221758454 
H 1.31610372 0.3042374 -1.13122499 -3.0236989985325833 21.520384705025563 -21.553378989824747 
C -0.33785756 -0.40914796 -0.18727189 71.75088435762984 -4.7104808185858005 20.83622999550324 
C -0.9069945 0.68690257 0.68780469 59.12088700727631 8.835919036540894 -18.417948374823165 
O 1.09646195 -0.27686021 -0.41132504 -7.651477099868908 -11.66685452320959 17.631022112659565 
9
Properties=species:S:1:pos:R:3:forces:R:3 energy=-97076.17532391644
H 0.57762994 1.32637926 -0.30268186 24.807130828851 16.927455512605228 -15.37566044556488 
H -0.62769922 1.02390278 0.88405064 -2.5203701403985286 -8.304435229298623 -12.381737413511148 
H -1.55607333 0.78524478 -1.37475744 -3.252280235107485 20.959818636616678 -11.352371224201624 
H -0.39093202 -0.42684852 -1.91078077 8.587436165341758 -0.9061000915207429 -3.5526866524718663 
H -1.69535089 -0.74027952 -0.74552349 8.963954506578895 -8.95576759807352 10.787716444824236 
H 0.88655708 -1.27820387 0.44119024 -0.08168646861258283 -0.7739261060302846 -3.2961401981561966 