9
Properties=species:S:1:pos:R:3:forces:R:3 energy=-97080.2781632184
H -1.17707346 -0.43798129 -1.03303907 27.179344487693683 6.530436271271718 27.31915516072392 
H 0.49090566 -0.32444264 -1.38048114 35.73924944579771 9.58809955621956 -35.22731034104466 
H -0.84730337 1.54767925 0.81736121 -11.731570706825009 -11.252271326378226 -2.0384856700702687 
H 0.87619785 1.4047231 0.45671732 -21.87685792729184 5.275685818928788 -10.658978968726675 
H -0.23172683 2.03690059 -0.79802953 -4.579865001950507 11.009527829044387 -10.129876290145877 
H 1.17656357 -0.96591963 0.66630021 0.34356200271144444 3.2521486089713174 -2.6847166367029107 
C -0.14729882 -0.11524554 -0.56409283 -58.78011642730845 -45.906256164553135 46.09707611572172 
C -0.17219798 1.28299546 -0.01191567 56.46150069394874 5.558961865454722 12.223301049302767 
O 0.22166685 -1.08215667 0.51248981 -22.75524775259682 15.943666355219818 -24.90016441905801 
9
Properties=species:S:1:pos:R:3:forces:R:3 energy=-97073.11749847032
H 1.0660685 1.07210217 -0.47402558 -25.76782137807068 -11.241176784666713 5.2623690485760415 
H -0.37749397 1.29705348 0.67190402 8.427026594911919 2.166751189391301 -9.936282703549407 
H -1.3003944 0.78752022 -1.57922061 1.90278268114528 -3.0573371841600414 16.721824656565236 
H -0.2006034 -0.43639828 -1.7112157 28.648363316579665 -39.25395306432756 -42.4397561715655 
H -1.66701721 -0.82002974 -0.73405913 40.909678231171654 34.94891869140946 8.004498397068675 
H 1.07083992 -0.198194 1.57142244 24.293114165624402 18.689458704925244 32.410215757631285 
C 0.17512697 0.51590657 0.04767753 -32.83092253434703 77.34680352182131 -10.853747703980277 
C -0.80969538 -0.02781764 -0.96865217 -53.863261242886466 10.759629087515673 -11.232730181352142 
O 0.5650461 -0.47372839 0.83344694 8.281040165871255 -90.35909416190867 12.063608900606088 
9
Properties=species:S:1:pos:R:3:forces:R:3 energy=-97081.28185560736
H 0.61990107 0.28713983 1.42156396 -22.15855327436272 -25.986359896202355 -10.217936546883662 
H -0.15269712 -1.36910563 0.60740315 5.553817773754791 24.842767122941897 23.725907499354836 
H -2.08364352 0.33311841 0.80417671 5.403731961356209 -1.8511022282945762 -0.20591663891220852 
H -0.9989013 1.60030579 0.0031742 -8.586227813695324 -29.6632933204685 5.1513370665245075 
H -1.45586434 0.10631759 -0.93078786 -1.01383904852601 4.1450256100019915 21.335989532287176 
H 1.47204635 -0.9827692 -0.70517474 7.459325471665041 -21.113208146450948 4.25890119092315 
C 0.09375133 -0.24693986 0.53511168 5.227543856080986 -13.238078082276596 -15.021064378015298 
C -1.21522804 0.4670015 0.12304969 19.257961473598684 28.035533371365172 -24.06888489229033 
O 1.00557018 -0.16371956 -0.56970042 -11.143760399871656 34.82871556938392 -4.958332832988172 
9
Properties=species:S:1:pos:R:3:forces:R:3 energy=-97073.78723157095
H -0.92967083 0.69532121 0.82061434 -15.930129022152414 5.368403980737417 30.867300118587497 
H -1.60783817 -0.44493888 -0.3215156 51.041489781265504 13.620193498853446 -2.1170795173934516 
H -0.33682705 1.99510726 -1.10441897 19.766451024927317 -39.960158116210465 16.487528948367014 
H 1.08392763 1.34827697 0.06071441 -35.112065136814735 -6.626357335727075 -41.35320376228614 
H 0.74217722 0.55000995 -1.58478198 7.5712551202488125 -0.16795376392798492 -13.657050002801238 
H 1.16173197 -0.71400347 0.56956455 12.13802510038228 7.162876139132993 -1.316212743006617 
C -0.56471328 0.01490686 0.05721363 -42.35068322365397 -0.7281593427387212 3.5254009101907715 
C 0.23123811 1.02148512 -0.74020439 21.041449371640073 37.86249167517008 12.120049239137641 
O 0.24312608 -0.9941817 0.61098575 -18.165791830021824 -16.531336735289678 -4.556732004974428 
9
Properties=species:S:1:pos:R:3:forces:R:3 energy=-97072.82422994536
H -1.22589808 -0.31876178 -0.89785355 -22.707947722692072 -3.1820535410887523 -8.767226794956397 
H -0.31321128 1.34758265 -0.62684399 -37.01366436855557 -20.929150932710826 7.6150510489610115 
H -1.44278197 0.35783908 1.62960543 -0.2247581495208275 -9.56810779919579 7.076079967630831 
H -0.04277295 -0.92307796 1.5431843 -28.47720427836286 -4.052227998183243 -18.634738992732235 
H 0.32312117 0.63776247 1.712947 -12.721300827653629 13.795282348018517 -18.877353235572 
H 1.52450514 0.26752861 -0.57311609 19.26472421102715 28.50096931795675 13.816197859637548 
C -0.50733001 0.24951376 -0.33167766 120.09056152016434 23.163604203112758 4.60701437481125 
C -0.48036563 0.05045452 1.16892505 12.360940483996771 8.509360521815916 31.315041243522472 
O 0.8155495 -0.31151687 -0.8041543 -50.571349682582266 -36.23767611972533 -18.150065471302486 
9
Properties=species:S:1:pos:R:3:forces:R:3 energy=-97078.89769264148
H -1.18726616 -0.07678831 -0.86854098 -21.241167723941974 -1.412510898554778 -4.447357800745969 
H -0.30387436 1.41767189 -0.4671958 -5.074699823928131 6.258494302308701 6.704034543381276 
H -1.33773662 0.52262969 1.59246753 -47.275259288910014 45.71705485911308 24.12662251904681 
H -0.83078838 -0.96874979 1.48850055 0.6012136422424981 -52.734888482758464 -3.2769891882544284 
H 0.31410975 0.2737405 1.77235015 48.47124519347017 15.544039919248577 29.80765517467539 
H 1.52642159 -0.14598937 -0.28987274 2.1913474895388227 -0.43215825056226903 -3.396790316945193 
C -0.38843848 0.33344189 -0.26035641 52.93463292312338 -29.607243117061262 -22.07505131372787 
C -0.52315408 0.00214543 1.21343014 -5.460938340283831 2.855910063730068 -52.858985841100875 
O 0.79887033 -0.31643587 -0.91881067 -25.14637525713196 13.811300418715302 25.41686459531295 
9
Properties=species:S:1:pos:R:3:forces:R:3 energy=-97080.21018221171
H 0.18317492 -1.43844097 0.03754774 9.722772066655098 16.76914128796464 -17.952489897631708 
H 0.70678573 -0.41610271 -1.40078185 -9.21244093524117 11.163331190423902 21.08780193052863 
H -1.32560759 0.98432902 -0.82391331 -12.932893991915668 25.124544291664993 -3.1370611189405855 
H -1.75358618 -0.72194339 -1.08979003 0.40504089486978373 13.27694099543515 19.64171688068291 
H -1.60025156 -0.03145007 0.71214194 0.7938384130439375 0.9407462250377685 -34.425538785199315 
H 0.69801369 1.23387606 0.83473533 -0.8872917839014273 -16.578329637543373 -14.755906491259589 
C 0.19684966 -0.36020626 -0.36820657 43.17422645391395 -47.25104363731844 35.905800383427625 
C -1.22799874 0.00206561 -0.38251572 -27.143928756317447 -13.788716456883774 5.4015227767464875 
O 0.96877649 0.29331315 0.67255629 -3.919322361107064 10.343386927040186 -11.765844492533418 
9
Properties=species:S:1:pos:R:3:forces:R:3 energy=-97072.35831411944
H -1.56311075 0.06398235 0.08888244 22.642890022615244 20.86011124555969 -18.425407189205963 
H -0.39065633 0.06158531 -1.41986555 -18.83102083564123 -15.218435990466073 8.375801497343089 
H 1.58941057 1.1449715 -0.14162627 -26.088552768172914 -29.907227382133073 -3.6354095286791335 
H 0.34813389 2.07398993 -0.75466453 -17.278484630446794 -17.816887703495674 18.973953775487026 
H 0.50300746 1.70172301 1.05970217 -19.01623659654383 -17.891243426398493 -28.67225761066763 
H 0.8810431 -1.06054575 0.39987076 19.33931591231823 -8.264112570431767 2.459883780456151 
C -0.47143723 0.01337344 -0.27876571 -14.82109937493572 34.13480629593268 -28.090446372388772 
C 0.43883271 1.20681396 -0.00293356 42.93681915128958 70.38540430760224 31.250587126358337 
O -0.06175746 -1.16717938 0.25983487 11.116369119517415 -36.28241596199058 17.763293335475844 
9
Properties=species:S:1:pos:R:3:forces:R:3 energy=-97080.33505750254
H -0.01990534 1.34239988 -0.38676835 5.139053146303305 12.199206351457935 30.634853105400847 
H 0.97154169 0.54887144 1.0057689 2.6186035558946577 7.055156155264471 6.634998413693279 
H -1.56507055 0.78819024 1.35416546 5.664183324378164 -14.542998251456924 -17.347635784776305 
H -1.85494436 -0.2715564 -0.10622936 3.645172393355373 -2.1575693770278708 3.865579765456412 
H -1.09307217 -0.91073608 1.48099984 0.27642555834001936 6.319521396648304 -22.4847501136685 
H 0.28419758 -0.49195897 -1.60863281 17.84286785680452 11.538617463593676 37.95648578042479 
C 0.22881157 0.41291799 0.21119425 -27.429418730737286 17.04182795254489 -58.450579130114534 
C -1.13429528 -0.06438629 0.71723679 -1.7793908863255645 3.4360682674700405 43.269936442223035 
O 0.8861439 -0.32506302 -0.80654403 -5.977496218013187 -40.889829958494516 -24.078890850281116 
9
Properties=species:S:1:pos:R:3:forces:R:3 energy=-97074.49817802422
H 0.36189085 -1.45620776 -0.17312577 4.563659571528367 -22.920965058031015 3.940663582481808 
H 0.60892474 -0.00862352 -1.18785777 17.543298629099002 -13.265727871618981 -44.78812296916208 
H -1.18967812 0.96694211 -0.9213821 -7.924431760005678 7.353264451440642 15.434962170281757 
H -1.72190086 -0.5328127 -1.21401899 -21.98832036238327 -31.969985623205158 -9.87846918424595 
H -1.76804839 0.09833776 0.53331751 -11.010535776933954 -8.70237898520481 7.1657268529288976 
H 1.13364492 1.15844409 0.30949702 4.634629775343287 25.5703477850099 -8.455795799322246 
C 0.16332272 -0.40373963 -0.30479973 60.534686893308695 22.862167307258918 31.265285378230317 
C -1.22914468 -0.02845595 -0.40795419 -21.8712015608998 58.49242201156307 -9.328038328321918 
O 0.96227887 0.31011065 0.70223339 -24.481785409056645 -37.419145203033615 14.643787111308368 
9
Properties=species:S:1:pos:R:3:forces:R:3 energy=-97081.0268810476
H 0.36948354 0.85764837 1.26408153 8.301567914008068 -8.979423542131128 -20.939164005627887 
H -0.14347023 -0.78256135 1.32821531 -5.244957638149561 0.9306952058472181 -16.637625433155016 
H -1.85031536 0.78704207 0.61003459 -27.577914357112448 1.0510086092300923 13.536418799377891 
H -0.98972113 1.39184278 -0.72692122 -0.8616116433173595 -7.425228373292568 -21.518234811468172 
H -1.55764213 -0.48663972 -0.66033766 -7.204091721247901 23.44701780488009 -12.862930550169269 
H 1.67885223 0.18053875 -0.57210784 4.020068531400831 12.735541352601636 -0.09507201658602932 
C 0.05207265 0.01478155 0.54658935 14.005322086709576 13.14009368920024 35.19660824832846 
C -1.19231157 0.45795607 -0.18041158 9.564499345751141 -19.321458633178253 19.172057039523523 
O 1.01295527 -0.47769034 -0.35319357 4.9971174819576545 -15.578246113157334 4.147943915597549 
9
Properties=species:S:1:pos:R:3:forces:R:3 energy=-97065.99391628668
H -0.83107377 -0.72164907 1.16423192 7.325535212088137 6.904203507680861 2.687049146701473 
H 0.38151317 -1.56053995 0.16865927 -1.5895350076678174 2.4519589384020635 -8.892579937787103 
H -0.6801884 0.98700789 -1.38044915 36.94340921483171 52.69421719250392 -9.804606762898498 
H -0.87739536 -0.67416271 -1.70298493 -7.533939703556006 -31.69769976613864 -38.0922172290549 
H -1.94825272 0.20732587 -0.55485197 16.447262023089344 -9.309276267723417 -17.556757697977332 
H 1.83980575 0.19836951 0.73663058 -58.86876722292741 0.7024720872283742 -5.591051368795387 
C -0.08643683 -0.56252045 0.34007985 2.485005399327294 46.11598758977209 -45.98545122314692 
C -0.8793264 0.06069954 -0.9500122 -56.510859309190295 -63.53451412835319 93.15567285539571 
O 0.85821247 0.47512858 0.5567043 61.301891765647134 -4.327349153372058 30.07994221756295 
9
Properties=species:S:1:pos:R:3:forces:R:3 energy=-97076.77625011002
H 0.36640111 1.38998012 0.217909 18.239828567063118 29.335583373507323 -0.006852859828007377 
H 0.33546011 0.0291522 1.3406865 -9.806387866110414 6.612390735440821 48.32644932876023 
H -1.91597687 0.42151508 0.87281305 -13.365915520199824 9.146848429872351 -3.8797159381523234 
H -1.41763068 0.97845062 -0.82917358 -24.910113457638563 24.000428629094095 -19.764272671664806 
H -1.6182224 -0.73566114 -0.47800319 0.9534677132251475 -0.7493096469249714 5.970408565617964 
H 0.97156895 -0.70532792 -1.16866061 -4.652903277670607 7.08600054650626 -6.418703468981673 
C 0.12914935 0.34947547 0.3503568 14.779114194961602 -43.830979210692625 -20.99226270045026 
C -1.34370146 0.2533859 -0.04943227 26.932763673453213 -34.73754253239894 7.704371833471278 
O 1.11823283 -0.53947962 -0.22310415 -8.169851655441576 3.1365808614167334 -10.939422088772405 
9
Properties=species:S:1:pos:R:3:forces:R:3 energy=-97070.57414523703
H -0.47588043 0.02733977 -1.50404835 20.935083595406713 9.662455279122376 18.189971906982006 
H -0.10727364 1.40485618 -0.14404356 10.60156388529486 -19.961365616169644 -38.40680132285181 
H -1.1768238 0.42932045 1.5442422 10.196388992646815 -11.189318458659026 6.064209382042093 
H -2.14673329 0.38629146 0.0914875 -0.7745498479007694 -16.540603926768462 1.7382322236208911 
H -1.27055126 -1.27829598 0.59625243 -12.931672596237721 46.78089049460369 10.588207982847576 
H 1.78135622 0.51649684 -0.3734831 -0.6711972429466875 -24.51449746844675 8.424147421410895 
C -0.04322571 0.27918853 -0.46198868 -76.951353547576 41.60710464984697 54.32743666170557 
C -1.25717597 -0.09372775 0.57418331 28.866121564462713 -39.29022733014149 -46.58686764078837 
O 1.19008258 -0.23293584 -0.09747951 20.72961401102905 13.445562376612344 -14.338536614968834 
9
Properties=species:S:1:pos:R:3:forces:R:3 energy=-97071.13054527412
H 1.11802324 0.99141773 -0.41815087 1.82244567688367 11.570271770610256 -26.40949404860039 
H -0.31999651 1.25560103 0.60602136 4.288547902907925 24.627074575321934 9.971590525210408 
H -1.00371586 0.5760347 -1.96478001 -16.499895876061476 -8.9050547751968 36.92373881531156 
H -0.47559881 -1.01075589 -1.18289294 -21.616309326944062 29.693713187775625 -6.723383585397818 
H -1.73279221 -0.28572809 -0.27106449 -30.564471068825014 12.837019174481124 -2.102946902160679 
H 1.07750518 -0.18047333 1.59948566 11.892521011652075 17.36162728730454 20.39476897883079 
C 0.20692021 0.53340684 -0.02611756 -24.010305332590807 3.131990548145541 31.638132417507336 
C -0.95029362 0.04671307 -0.94103552 97.19225394486973 -56.88169045268819 -33.25849640074334 
O 0.64218817 -0.52039092 0.82881358 -22.504786931892042 -33.43495250157508 -30.433912171599957 
9
Properties=species:S:1:pos:R:3:forces:R:3 energy=-97077.0411057038
H -1.31951321 0.27138397 -0.8816038 23.834701837091533 -8.140676900233329 1.8109621858688882 
H -0.05271863 1.3560677 -0.21443201 -3.9718779498901213 45.534986267268025 -5.0818064494601005 
H -1.41664133 0.53880974 1.64020626 -21.930049116155846 -2.750145498767305 7.716086559590138 
H -0.52534961 -1.19194783 1.45792118 -15.480945938824837 43.011470143633 -8.305637651839824 
H 0.31203656 0.40210865 1.73038657 -2.545628128690025 -6.262847451370582 5.668040800242589 
H 1.59822209 0.11382004 -0.47976573 -29.619454702198627 -17.388588114618873 -16.499246046127965 
C -0.35552861 0.34001772 -0.28204417 7.302683254700089 -35.983832151574745 13.351038209349818 
C -0.59007578 -0.03555746 1.23722079 50.766163479035626 -34.85621713109549 -26.307385369924134 
O 0.79824776 -0.32253508 -0.9219645 -8.355592735067798 16.83585202258035 27.64794776230059 
9
Properties=species:S:1:pos:R:3:forces:R:3 energy=-97073.50434750262
H 0.65181758 -0.54665811 -1.12406695 14.268015837330557 -22.321064119687048 -72.70735931302904 
H 1.32978541 -0.54276518 0.36958975 31.64474929894708 -27.948202394571016 41.85155335784574 
H 1.20790641 1.61518713 -0.73155888 16.02040439260515 8.458067832447435 2.8159348504298505 
H -0.47964948 1.75025671 -0.52521798 -21.73749430879615 1.0392428928062318 4.6823104538039795 
H 0.60145719 1.45266485 0.98023696 -7.459248393297017 23.048924635522038 0.41580577833035665 
H -1.33298393 -0.97208243 -0.43595702 -46.23665555364788 -3.198538825277878 -66.05776581389483 
C 0.44403844 -0.30908695 -0.14155085 -60.88716034118495 74.18010162000118 -7.548666415133098 
C 0.39153614 1.27285365 -0.08614472 24.047508096284194 -41.88190919081635 5.451980648098199 
O -0.7519578 -0.89725335 0.2633477 50.339882157580064 -11.3766224504246 91.09620645354885 
9
Properties=species:S:1:pos:R:3:forces:R:3 energy=-97077.21690063368
H -1.23371508 -0.12226502 -0.68225268 -12.413766439978438 17.35301466904345 -31.868678559556376 
H 0.45773264 -0.07554459 -1.44949845 -2.095855692302315 -2.97833067111266 -12.532512187937776 
H 1.15561421 1.13451079 0.61042241 -9.132492880282829 0.8233914451660348 0.8866182375469873 
H 0.28374503 2.16373428 -0.42589563 -19.1705889930679 13.334283743783125 -7.571517186700101 
H -0.52569585 1.28858887 1.07315108 -9.8959944334929 18.61789203312391 3.763862407725521 
H -0.80323817 -1.5533744 0.23204421 18.00286476151016 -10.127492789842313 12.215273040817628 
C -0.15271458 -0.0320304 -0.53031486 -15.664488506230757 30.97713442138202 -7.365409630599397 
C 0.11612774 1.27779186 0.18679858 48.4943414299938 -29.23341777542084 18.068145395943738 
O 0.06933249 -1.11392579 0.29832355 1.8759807538511768 -38.766473890301675 24.404217296938725 
9
Properties=species:S:1:pos:R:3:forces:R:3 energy=-97072.26162708004
H -0.15514905 0.65159472 1.46060935 8.630078290175664 -2.990122475599544 -26.651396798812222 
H -1.36527956 0.01944644 0.40573709 -39.74886377885216 7.644286281042635 -4.20104142459888 
H 1.05379244 1.13697825 -0.9655445 101.88850016761275 7.762403543847298 -17.736123803657307 
H -0.4725721 0.44803881 -1.61733128 17.029854717437885 16.330132549216454 -6.086149443045344 
H -0.42789704 2.09806495 -0.8221038 10.400628880599204 -23.342101101965607 3.2176542605482505 
H 0.57380098 -1.12579506 -0.52076011 -6.644531229086487 -23.341888839998276 41.61018897038904 
C -0.30676785 0.18091461 0.4152807 4.545227169180808 25.14887971118227 41.74932253960169 
C 0.06068266 1.06386165 -0.83408872 -129.73581527918546 -25.7268180579231 33.09908647745574 
O 0.23465015 -1.13792438 0.4441368 33.6349210621178 18.515228390197873 -65.00154077788096 
9
Properties=species:S:1:pos:R:3:forces:R:3 energy=-97078.72957415297
H -0.57660767 -1.28615216 -0.67026655 4.7826249852368035 21.468309373766363 -0.8707626243335791 
H -0.7570026 0.52706622 -1.19368888 13.04329037388625 -26.745785782475437 13.954003309278072 
H -2.05342424 0.33616306 0.81875616 17.183551354923207 -10.160930571712903 -8.787658491588438 
H -0.80510263 -0.44272026 1.68974471 21.356144932615376 -36.110231188568505 52.296913779962864 
H -0.6116232 1.2295516 1.03502202 12.60616353313894 10.895735255596486 19.16950159516821 
H 1.21938944 0.41082614 -1.21379506 22.81022597377798 13.802168410835828 -24.410760657473585 
C -0.29376757 -0.20132971 -0.40779038 -15.257540811118123 -11.070639116678297 -28.541501867148845 
C -0.92128671 0.19647111 0.88363364 -51.98508079099393 47.829125468405906 -38.702152585094765 
O 1.13788557 -0.04525437 -0.38655708 -24.539378365645444 -9.907751849169435 15.892417541230058 
9
Properties=species:S:1:pos:R:3:forces:R:3 energy=-97075.41161769151
H -0.55163743 1.2261441 0.68504885 0.8306356259394032 -20.716907938515277 3.50789344825952 
H -1.29833465 -0.41362187 0.51855236 -9.083318067303484 -4.821874476056532 6.142618241282014 
H -1.2036402 0.94086719 -1.64967601 -27.574265585752215 3.5697707762895 -1.6949118091483586 
H 0.52008896 0.69532999 -1.73704577 -7.462802298973522 2.9370237807771677 20.341577789966784 
H -0.39578177 -0.70895776 -1.46730173 -14.763125769790978 -33.088276532795405 -38.05888735689955 
H 0.45603003 -0.94223929 1.68320979 17.114846069307198 31.07162301401315 -48.15432384639049 
C -0.39536881 0.15971739 0.265691 -6.21857482259767 65.66640810808117 35.95435382617858 
C -0.42644696 0.32926838 -1.2279159 67.07206377516586 -13.0430674395295 -4.460743348719416 
O 0.77268513 -0.41741741 0.84627091 -19.91545892599459 -31.57469929226428 26.42242068382882 
9
Properties=species:S:1:pos:R:3:forces:R:3 energy=-97078.68563997572
H -0.31985405 -1.33043786 0.46135532 -5.5864337816401255 -44.18516024087592 17.061697570000867 
H -0.88926233 -0.56314737 -1.09115871 -3.1556642795188483 -12.235988148679795 -0.5775837862479137 
H -1.96825494 0.6311738 0.61394818 -5.086057617911978 -1.04965202995284 3.6136864729274003 
H -0.58264925 0.70334058 1.71049715 2.690169041874944 -18.283191671093327 9.70564762492188 
H -0.62870721 1.72972258 0.46426904 9.225602363036819 5.758060033349272 -31.04470724789857 
H 1.28494734 0.47473445 -1.00319207 -12.275398911161856 24.465719905518 -17.30196507298951 
C -0.27681695 -0.48234509 -0.16351578 -6.825585943936747 81.54868213607907 -23.72038750238315 
C -0.86267191 0.67233859 0.64448877 -27.62300045912329 7.507655980059243 25.816713965640943 
O 1.0508823 -0.24637909 -0.43387362 48.63636721673898 -43.52612596440369 16.446899161849103 
9
Properties=species:S:1:pos:R:3:forces:R:3 energy=-97068.123235024
H 0.12549744 -0.81275685 1.31667603 5.604735743672564 -2.52768191297155 -1.1420440909736682 
H -0.43211239 -1.28015574 -0.37668004 -14.301192738570908 -15.501115569005595 15.64302751693031 
H -1.95687532 -0.12698744 0.68508167 5.816888615468574 36.67666469951572 0.06170775562032321 
H -1.00999307 1.56854261 0.69893193 4.732788484113483 -20.007352942175867 2.799960655111787 
H -1.39264738 0.59538697 -0.77898325 -8.615529451755553 18.474476464112165 -21.385237866171412 
H 1.89682687 -0.56092387 -0.39668988 -10.02648099563412 -9.684526966261796 11.205979244363041 
C -0.11985849 -0.45706087 0.29021524 130.15873361215301 -56.023444169500934 -29.47125671690615 
C -1.10381447 0.534105 0.26175056 -96.29663058229525 27.40833246088755 7.945724362717514 
O 1.09300749 -0.01906781 -0.48670261 -17.073312687151816 21.1846479354003 14.34213913930825 
9
Properties=species:S:1:pos:R:3:forces:R:3 energy=-97072.00040455653
H -0.1623876 -0.29204978 -1.54135473 -16.14689829528264 -6.887712294386502 25.992689808948835 
H 0.01395808 1.27701694 -0.97584823 -20.181940189038247 0.841937686334063 25.14019950112153 
H -1.13453579 0.40057608 1.57855725 25.38964644483151 0.11266367181158554 -18.240702517174423 
H -2.2413265 0.38641248 0.39500765 2.6382253367519057 -12.304776441769064 -21.306546781522407 
H -1.37281935 -1.13865918 0.88505615 5.021086482771552 -3.0773087822260217 -19.738631663175276 
H 1.64828965 0.41912825 0.62695153 -30.963869827155317 -15.001989260660508 -26.841796969330336 
C -0.12391654 0.24248832 -0.53370511 44.923584050593576 -13.507372112842669 8.071637213082193 
C -1.23675744 -0.08723224 0.55098222 -4.303609016020145 35.31195661898943 14.041770668217357 
O 1.22606267 -0.18294607 -0.07397582 -6.376223801631143 14.512602100570732 12.881380739832528 
9
Properties=species:S:1:pos:R:3:forces:R:3 energy=-97082.15578042327
H 0.84067123 -0.75340687 -0.99416709 5.871396065694252 14.167915939507159 15.339945887284912 
H 1.35144329 0.81228498 -0.18228725 -6.585799884293003 -2.1745752366564317 0.2239340038934759 
H -1.48208248 -0.20185332 -1.09564962 -10.39730739584782 -32.427445737437644 9.415672875303992 
H -1.39454634 1.23759329 -0.1614199 16.155439764280935 1.0911462800136869 -10.183950915689564 
H -0.70245769 0.96840852 -1.84800794 13.187549061662091 27.712665131737058 -16.376826624566423 
H 0.30323118 0.12489331 1.58609958 -3.039679122955879 17.84297102323557 32.092491609703096 
C 0.52560896 0.05689769 -0.25527165 -14.877045226090859 -37.97221332496517 -17.651820227994993 
C -0.77883472 0.57739603 -0.84317219 -13.843036547384095 16.36117853003616 17.551536527909377 
O 0.25830765 -0.61409276 0.99440687 13.528483284934383 -4.601642605470382 -30.410983135843885 
9
Properties=species:S:1:pos:R:3:forces:R:3 energy=-97077.02939397618
H -1.05533659 -0.18108846 1.07571822 -3.3298056576677264 5.740422131102902 5.26592295425255 
H -1.36170413 0.00294646 -0.69154832 3.71796757576093 6.2461321178984255 9.653834360113963 
H 1.36978273 0.96375541 -0.09783515 -34.7120592381086 19.47558572370347 12.682114185349365 
H 0.023888 1.89310944 -0.82312843 -8.818622650755929 18.1245300008861 -28.296634564320637 
H 0.19754808 2.06797265 0.94006999 1.5917524930248643 -28.570738285051515 -20.219336241562218 
H 0.88353321 -0.98800623 -0.85526769 -34.96962194106116 -17.253411630238556 38.073808543128266 
C -0.56675827 0.01641748 0.10908129 10.353026466327584 -35.28522702677917 -15.791804182893504 
C 0.256906 1.32643987 0.05058809 43.60553091332271 -22.97135178011993 32.354939895367444 
O 0.22890709 -1.24496557 -0.09138848 22.56183203915733 54.49405637695618 -33.72284494943523 
9
Properties=species:S:1:pos:R:3:forces:R:3 energy=-97073.98730044544
H 0.22147383 1.48707387 -0.18709571 14.425798814142292 14.676196786331602 -27.187992680586163 
H -0.08482889 0.88444812 1.30288656 4.333115801121426 -22.912435447243183 5.976610409691415 
H -1.70743964 -0.65664114 0.60184835 5.129062603986128 2.6950807126497502 -8.254889254331708 
H -2.07138391 0.70919285 -0.31696913 -5.02242053144892 7.942098121957166 -20.900025981986534 
H -1.28196855 -0.91196464 -1.05553391 4.951599741085866 42.17732211575371 6.443166957171981 
H 0.97874527 -1.29039443 -0.24259501 -13.990672453500508 22.39964610879976 9.383011806218889 
C 0.04929856 0.51040633 0.24986728 -4.108210609790827 -27.38318119649024 -16.54285105765167 
C -1.29046666 -0.05639519 -0.2695711 -4.162265076376722 -51.268627873626755 42.65203829785558 
O 1.18023357 -0.35488698 0.00833164 -1.5560094750397806 11.673900671868184 8.430932689439251 
9
Properties=species:S:1:pos:R:3:forces:R:3 energy=-97074.59224542117
H -0.45750638 -0.94807275 1.15290321 0.7565146956038039 7.486896996818356 -34.62835568789584 
H -0.76327779 -0.90801143 -0.68783264 -40.032270265693214 -60.46639071595374 -53.17411897004235 
H -1.72834656 0.83345706 0.84143903 -10.544119156336881 14.32112994782654 22.557474146811263 
H -0.17845212 1.73857143 0.29255154 -16.295337002247567 -11.955841483895703 8.573341496382476 
H -1.48754874 1.2478882 -0.76211599 -14.059021992802553 2.6771001081209262 -49.27126291998767 
H 1.42367514 -1.33835363 -0.22652716 -3.2085744287948232 22.46256221606652 -0.21800489866073028 
C -0.27873733 -0.47092573 0.09889811 36.36246481173787 54.31015213413106 64.12340234663786 
C -0.95446948 0.93592353 0.0917744 51.921280061226454 -8.726855517426632 39.84537063890451 
O 1.12675955 -0.38857122 -0.18159275 -4.900935536872055 -20.108753685687326 2.1921538478504763 
9
Properties=species:S:1:pos:R:3:forces:R:3 energy=-97080.75711550783
H -0.41556301 -0.73945376 -1.21375548 -4.951702907516916 -4.231212269486228 -25.50599327681368 
H 1.2082244 0.11130848 -1.11366645 -17.11650147548818 -19.69780028707945 26.091473445410564 
H -0.51793056 1.90328677 -0.95525909 -4.411358645414831 20.923647537233794 -32.94452300478539 
H -1.46345459 0.91808566 0.17770546 -7.07907653741546 6.788805332535934 7.611269465643566 
H 0.2069176 1.59262317 0.57340448 -8.082865752571966 5.55995558349173 9.668996268015142 
H -0.19338127 -0.43816657 1.32202413 2.897704326515692 0.8638231995691736 2.7586181901448987 
C 0.21868929 -0.15197024 -0.55507846 0.9814281876817293 5.7281820862604205 4.199259135565915 
C -0.45981499 1.16001221 -0.19772007 17.00487421127128 -23.569675576471994 22.208883077041403 
O 0.25498518 -0.96772793 0.6413233 20.757497407117608 7.63427439394662 -14.087983300222422 
9
Properties=species:S:1:pos:R:3:forces:R:3 energy=-97078.03688583146
H 1.11034846 0.83999545 -0.24967165 51.325193909189245 29.523290544428725 -23.94858097547583 
H 0.14545941 1.02080096 1.26061759 5.031787331895611 -17.60931803004458 -22.688208545551213 
H -1.14091265 1.6255124 -0.98078459 -1.1428658649589267 31.139095045740746 1.4590211716425276 
H -0.65666363 0.13146362 -1.69014243 -8.235702669798544 3.065208664267035 25.664328846233108 
H -1.8297915 0.21709513 -0.35737399 -57.88880233841712 -33.102217045018634 28.54767525151718 
H 0.16328212 -1.50189539 1.01984192 -15.944237920964255 13.333191602599255 9.339671232788564 
C 0.29662096 0.44611168 0.26059181 -77.84516378977033 -31.926779047553094 36.43794232135073 
C -0.93468662 0.61189396 -0.68163512 80.26927490671524 0.8523871413962538 -44.72251979140385 
O 0.61805003 -0.94131007 0.37891785 24.43051762193014 4.725139938363242 -10.089329511101221 
9
Properties=species:S:1:pos:R:3:forces:R:3 energy=-97074.05882771776
H 0.43461973 -0.14423788 -1.52348562 -12.469535603797643 -20.884074317268357 -9.158514537328301 
H 1.45132114 0.49708466 -0.35478943 8.623655883387553 -5.6661541589575295 16.15924387819826 
H -1.4464103 0.64664675 0.23543172 -54.47172499500757 -28.609093666802142 -1.65094393638441 
H -0.32864077 1.62568563 0.91773436 3.526289090154637 -11.696114657533188 -39.27330922127038 
H -0.81529648 1.96895683 -0.85584624 11.492311151725932 -31.87054741352574 15.411956056157658 
H 0.74820553 -1.74590316 0.54485012 33.48986906006182 -18.5591855905724 -8.951114436286861 
C 0.43375081 0.06421699 -0.44115147 8.49213647111479 -24.25340339041756 17.21528866941305 
C -0.57605829 1.10532831 -0.11990972 22.025155521552225 83.35291715915086 37.842386079325834 
O 0.1040082 -1.05750326 0.48646008 -20.708156579191744 58.18565722174709 -27.5949913660038 
9
Properties=species:S:1:pos:R:3:forces:R:3 energy=-97072.30343051747
H -0.02488736 -1.39092912 -0.60301713 11.743936448698424 -27.138235629472963 12.69046710880126 
H 0.253826 -0.09046697 -1.62755647 -21.53687117503574 17.7348039848325 10.703510106487736 
H -2.08224262 0.56513435 -0.36052863 15.454096578688874 0.5784245333699171 1.5563747079221177 
H -1.7241398 -0.79187849 0.5384342 -24.47360798711964 -51.64660240310905 36.512158117370056 
H -1.05024611 0.82084262 1.05835281 6.632012516298069 3.0496684794520084 16.67887066079609 
H 1.85468241 -0.26383804 -0.04517685 23.756869286880235 -1.7901427257546256 1.1120641632748134 
C 0.05979142 -0.3071682 -0.52296035 -40.741741068738314 23.875182210157583 -1.032727991976491 
C -1.270618 0.10222257 0.27907121 15.768610709044053 40.84295682416652 -88.4674439687484 
O 1.08359707 0.22627748 0.24857338 13.396694691284054 -5.506054087820839 10.24672591025178 
9
Properties=species:S:1:pos:R:3:forces:R:3 energy=-97076.86019318755
H -1.30582374 -0.2215747 -0.8861887 39.839020567200244 -3.6727427326876394 24.147548703055264 
H 0.40069137 -0.33387615 -1.48556209 -8.996303704728755 21.127333646757442 23.785409627828578 
H -0.54549054 1.62746521 0.89735915 -23.813857474735293 -13.02628095679455 30.16460272536028 
H 0.98140067 1.55300512 0.23884777 35.415283135880486 17.11684180612854 -9.301017024134204 
H -0.58869803 1.92853296 -0.77093972 28.57506890351351 4.531031705432568 7.31699492891089 
H 1.04648382 -0.84020852 0.80391503 -22.162585065920986 -12.32669752963557 -7.3212721854257925 