9
Properties=species:S:1:pos:R:3:forces:R:3 energy=-97071.6338761171
H 0.18964828 -1.42110556 -0.08277124 6.30837230716865 -58.70452863633826 12.512374574925278 
H 0.78625704 -0.22228606 -1.36553667 -35.702391756028874 -17.324327286285335 36.17956614516024 
H -1.363531 1.07093309 -0.67315691 -12.12507356291187 44.981333535560516 -7.177863731340328 
H -1.69604519 -0.68462646 -1.14947925 0.4329978118632258 32.27409535969791 12.418312877870909 
H -1.64326577 -0.29603059 0.51326403 -31.070381459377412 5.476369429562575 48.812852963096894 
H 1.15022438 1.23272541 0.41181657 -11.013432737750673 -33.76612978927637 2.7053024900710034 
C 0.15198012 -0.41590037 -0.34619131 93.10227770531169 105.31664122138662 -30.480165121520606 
C -1.2419644 0.06930179 -0.38408848 3.3419081472688066 -84.80886824010388 -57.753867761530294 
O 0.98051481 0.28028011 0.69600492 -13.274276455543555 6.555414405796228 -17.216510065090993 
9
Properties=species:S:1:pos:R:3:forces:R:3 energy=-97077.94263008253
H 0.01446419 -0.54709223 -1.40816317 -0.8031767537855118 -6.726388455929774 3.491101036419338 
H 1.28316799 0.15802697 -0.50799114 59.68294721020385 27.312982962176626 -10.903975526048958 
H -0.189755 1.82899288 -0.9982432 1.020753571048438 25.10498891678635 -33.811260952486975 
H -1.63135036 1.00704687 -0.39801617 -45.040208364700625 -6.3893508406164425 -2.67894761731145 
H -0.30199249 1.65744445 0.6613399 -14.240482258450733 -3.8729757313237383 4.238258418144822 
H -0.47847233 -1.37081132 0.99581523 -15.907146624449247 7.964091544907513 -13.414230612920424 
C 0.27901726 -0.08918328 -0.40946409 -66.29697556450995 -10.67286967646595 -33.23096400768456 
C -0.59433689 1.14763942 -0.28724652 62.31064127024135 1.3033169391253954 39.88980691098185 
O 0.31879344 -0.96688774 0.62729749 19.27364632858139 -34.02379565865998 46.42021116508531 
9
Properties=species:S:1:pos:R:3:forces:R:3 energy=-97070.87602429578
H -0.4738207 -0.0339202 -1.4767987 17.779669524128686 12.739428473992225 29.577482566256016 
H -0.14743724 1.29963386 -0.24172128 10.030990673074147 57.62150048720925 -14.005937527832735 
H -1.12821547 0.14855678 1.55157073 20.938348160747857 11.79904866765784 72.42651064218539 
H -2.06976921 0.49493942 0.23353445 -35.75320774533664 0.31428289525110004 -16.278582536680872 
H -1.30362645 -1.22830202 0.41092504 -27.298129367747553 -6.430420566742625 12.432246275167861 
H 1.52479998 -0.95514416 -0.38400558 -6.887044677137295 -26.03052224361794 -9.086548243834283 
C -0.09037874 0.26535083 -0.40612183 -23.116541337417313 -42.087500914761804 -6.676598201827269 
C -1.28384378 -0.1420845 0.57843991 57.579120428826634 -35.64548538982602 -81.37028840365724 
O 1.25823563 -0.07535365 -0.13524931 -13.273204473317474 27.719668590837976 12.98171543022314 
9
Properties=species:S:1:pos:R:3:forces:R:3 energy=-97074.23706817003
H 0.96264005 -0.82614015 1.00419952 -33.59510356301678 -3.6388329940405204 -25.652590403693317 
H -0.54649019 0.05512203 1.40181234 -1.253218371550788 -6.807447625208732 -12.05079847584022 
H 0.27890231 1.42445536 -0.8035384 -27.62217157021175 25.866359549575773 -45.59008544219592 
H 0.76263204 1.90097288 0.8352386 -6.718629628822203 -23.364502447355967 -19.069511978702142 
H 1.90034813 1.0230518 -0.20500666 -30.819308755012614 -11.873943939136836 1.9038688932239192 
H -0.63324807 -0.65288227 -1.41862017 16.325084509021295 4.971235751795673 18.15413639495529 
C 0.08435829 -0.21117438 0.50826919 11.030069807033758 -8.596212426907268 11.670224626623884 
C 0.76804765 1.05532636 0.0416416 60.56809858711625 25.912253195719316 48.339419839367395 
O -0.81161845 -0.81804124 -0.46410257 12.08517779962177 -2.468909064441436 22.295336546261115 
9
Properties=species:S:1:pos:R:3:forces:R:3 energy=-97077.95717824523
H -0.39949722 -1.45865667 0.25644243 -7.617600564211092 -4.273886411488391 2.886431911647196 
H -0.885751 -0.3226669 -1.16054209 6.342740958560782 -19.543532083849687 11.933219575790687 
H -1.92332405 0.33402672 1.12614404 14.473319406761698 19.41776627529478 -28.49918584310274 
H -0.45550412 0.92373339 1.60789338 38.42545428791404 9.832558936607754 29.95838844536539 
H -0.97904599 1.6635377 0.01508788 -6.442877616836623 -25.973377527384738 25.561113796520424 
H 1.286794 0.52243471 -0.94260788 -6.104274717741847 -0.8894487923851001 1.7325153803554778 
C -0.33235339 -0.45313668 -0.17602495 43.42429239621024 53.26319547541702 -21.508805162506015 
C -0.91731869 0.71438176 0.67921312 -42.915539592609264 -24.134211773744724 -32.12742115445025 
O 1.14950668 -0.30093984 -0.43459287 -39.585513372226885 -7.699061726824831 10.06374305037983 
9
Properties=species:S:1:pos:R:3:forces:R:3 energy=-97080.71256453522
H 0.23369673 0.89573207 -1.20822927 3.4199102698897614 5.215050045534545 -4.9582664270095655 
H 0.42226077 1.36815442 0.60044603 -17.048880030308716 -23.409276678431567 -34.812118818016415 
H -1.5414747 0.07944391 1.21290881 -1.0829226110558685 -7.043805476206904 -40.86892630508595 
H -1.99189785 0.7246655 -0.53983749 1.1617346494516165 2.3776672498357607 19.798037740144245 
H -1.52719535 -0.91846059 -0.43646057 8.286152240402929 0.4061164345590037 15.053496583638417 
H 1.22984719 -1.11114114 -0.67437547 -11.58425971567535 29.957802649768396 37.02462609830987 
C 0.11478995 0.52589004 -0.17482334 34.71852670609648 -2.6427350141919326 43.493838428948244 
C -1.31195548 0.06111521 0.06932059 -15.818735364681682 9.93581074677288 6.912181711682043 
O 1.09865182 -0.50617492 0.14506866 -2.0515261441191694 -14.796631143461225 -41.64286901261089 
9
Properties=species:S:1:pos:R:3:forces:R:3 energy=-97071.67486355314
H -0.39179736 -0.91333384 1.09188384 -1.4888267836475402 9.384594877316033 -24.35064783116087 
H -0.84222557 -0.9896351 -0.61677027 -22.597807478067544 -21.278155854025933 -25.908302039992215 
H -1.91863 0.67132153 0.44984948 -11.884313944188907 0.5715254265210943 -3.0794242869730657 
H -0.6470354 1.54681118 0.97547874 31.98673297384557 21.209920153544353 37.316744812379916 
H -0.98247177 1.53362602 -0.6850656 8.114278152095052 0.1614447922034768 -19.33565646856858 
H 1.22336221 0.10334681 -1.03965486 0.10478744842040628 -33.94697935708558 43.11055972192474 
C -0.29794842 -0.37680996 0.0686148 74.0431096435986 -104.05406672177855 51.243246559946414 
C -0.86428106 0.87984728 0.18657045 -87.76732099301323 82.23136287004051 -7.33682897173547 
O 1.09661908 -0.50070496 -0.20263698 9.489359795136552 45.72035381326458 -51.659691495820866 
9
Properties=species:S:1:pos:R:3:forces:R:3 energy=-97078.84394991826
H 0.30714743 0.44405907 1.35588148 16.212915324586124 4.705834771725421 25.882636129260703 
H -1.33886389 0.23309897 0.7938381 7.230916179141889 -1.8529924270427756 -8.44745117661768 
H -0.01627413 2.2847997 -0.54292949 -3.4224953597712386 -11.478380126071073 19.196769550133606 
H 1.05071212 1.03748385 -1.09940074 19.535201690997678 -13.230232690232627 -8.244072194745087 
H -0.72255312 0.94981562 -1.37572085 -3.0556070712531267 -1.6917041632174432 -27.85659297544091 
H -0.34185089 -1.7981684 -0.36919695 -2.659878429061893 28.20318119346315 7.24263683436598 
C -0.25744302 0.1837802 0.48237488 4.559781936706152 -30.22571045553105 -22.34187290741189 
C 0.07147133 1.17093051 -0.66759809 -31.789585481572598 -0.08032277440905133 10.520298383153802 
O 0.20643058 -1.21558587 0.21700906 -6.611247603951947 25.65032667131545 4.04764835730147 
9
Properties=species:S:1:pos:R:3:forces:R:3 energy=-97069.53274888925
H 0.69636651 -1.15101245 -0.97844581 -36.36558114944821 29.26634684006246 6.506894166034578 
H 1.38559276 -0.62040642 0.32502476 35.512972259516246 18.686289005267817 32.32719879780447 
H 0.55461981 1.86578634 0.04490989 -3.5281199978505087 13.974966253738964 19.41776390365269 
H 0.75045842 1.29394532 -1.58367589 10.585663210881682 5.0071661295061105 -16.65931054263326 
H -0.87037662 1.03745202 -0.88387088 22.442258588107507 16.869462934323742 9.307518880932431 
H -0.56506597 -0.18899275 1.62574979 -1.9332487954732203 -33.85147214417546 -65.09100267509578 
C 0.49588527 -0.31571304 -0.18425082 -40.54152704323897 -52.2003298415425 16.98455161017552 
C 0.24705802 1.09186016 -0.64234332 -26.09195014547128 -31.044254264258793 -28.804937941744964 
O -0.68073531 -0.72365928 0.71188905 39.91953307297674 33.29182508707765 26.011324986695357 
9
Properties=species:S:1:pos:R:3:forces:R:3 energy=-97076.08269167949
H -0.40768376 -0.60509556 -1.32206033 -10.334438721422927 -6.137289161498821 1.078042957449319 
H 0.92496044 -1.17436911 -0.42712322 27.833378156812618 6.673033623761342 0.27499901562102075 
H 0.68592798 1.42660372 0.51663346 -0.757784709944658 12.335326749391308 22.308712607666187 
H 1.28644477 1.5678362 -1.01516308 44.44841844231506 10.331472982985506 -46.35509654559826 
H -0.47861798 1.57639983 -0.78879385 -14.706445895408025 19.605010976008028 -9.08580710568019 
H -1.33963786 -0.14416456 0.94988333 34.59196402579829 -22.20741384476473 -11.746149190771282 
C 0.1683902 -0.38812987 -0.39164199 -19.25885558266778 10.280975979539258 -14.165309504846846 
C 0.47535084 1.157209 -0.51219724 -32.28122688747185 -62.593184479360524 57.957966536778144 
O -0.52561358 -0.74421042 0.80996371 -29.53501001383177 31.71206717393863 -0.2673587706181047 
9
Properties=species:S:1:pos:R:3:forces:R:3 energy=-97070.92089640578
H 0.60803869 -1.29087779 -0.26694071 -10.338568936128057 -6.182899396412241 12.162553808730147 
H 0.96991665 -0.09186113 -1.17542104 22.378570511339444 44.903274493529324 -17.241749080245746 
H -1.67912421 0.74192109 -0.76047926 -32.266949602071406 76.26299154498054 -1.62670101090876 
H -1.11596553 -0.60940166 -1.71518558 -8.087986127850966 5.195303753467409 -9.71944465279848 
H -1.79006145 -0.89778588 -0.18426745 -7.197550732355136 -4.090333171693053 18.64742727793031 
H 0.4646816 -0.2261914 1.62522454 11.583468773037302 25.769340414831312 -23.663651894411007 
C 0.37033095 -0.1915096 -0.28756514 -55.3495835724837 -52.8642164977372 8.796060033703238 
C -1.19348885 -0.15384765 -0.71110528 86.32743304395679 -78.18358881570812 -5.170452501794879 
O 0.77805464 0.40873521 0.90575073 -7.048833357444272 -10.809873511079005 17.81595801979518 
9
Properties=species:S:1:pos:R:3:forces:R:3 energy=-97074.39723185399
H 1.45169973 0.33509432 -0.41641652 23.16357811504973 6.191144410148896 -28.23066852532215 
H 0.66391955 0.80042624 1.08317132 4.6501474295584275 0.8888831557458963 3.181263784271751 
H -1.05097202 0.31632895 -1.41324234 -8.967048313689343 -2.7283228340476615 2.6733884882452275 
H -1.61178212 1.1962699 0.13562049 16.27716073724606 -10.186468413771387 -9.894178941470635 
H -0.48361469 1.98887394 -1.1434358 -8.404185309913288 -39.361339832481995 30.202445832418807 
H -0.43786971 -1.62091614 0.03634761 -27.986461724816873 4.150151914386223 -27.21681761858568 
C 0.51940579 0.31287077 0.10193956 -84.27202215008913 -46.64602113787443 30.31057136708524 
C -0.75343004 0.96793082 -0.56756976 37.01184769071225 34.284292082881706 -23.91742589911985 
O 0.26813994 -1.15159697 0.45777594 48.52698352594216 53.40768065501276 22.89142151247729 
9
Properties=species:S:1:pos:R:3:forces:R:3 energy=-97074.86455317624
H 0.97940984 1.0558281 -0.36468049 44.89302781386609 23.557656094344168 -32.71956800897084 
H -0.32271599 1.36544303 0.63486627 -30.68468960652417 30.49088494378141 27.605910406200426 
H -1.24494658 0.76556541 -1.60832135 -8.312558103467484 9.608065225180308 -20.58442445373167 
H -0.27979126 -0.78557437 -1.681619 -12.918915533418945 2.916286142315117 11.883205201510382 
H -1.66905466 -0.41908513 -0.43277766 -20.087570178511772 -26.123956641338687 6.295869010053836 
H 0.29751909 -0.69379144 1.75198877 -0.07596962534716951 21.938289386608314 -36.24162608963138 
C 0.13432956 0.61232286 0.05657875 -29.88660002502835 -109.29108884548462 -6.337487771324571 
C -0.85429785 -0.07055987 -1.03674484 55.561117445693405 47.57816185957739 28.36471136478198 
O 0.68150606 -0.48796081 0.84293952 1.5121566269173474 -0.6742981649834136 21.733410341111835 
9
Properties=species:S:1:pos:R:3:forces:R:3 energy=-97071.9479252182
H 1.12874538 0.48179186 -0.83653476 39.39855445438585 -6.345480205178312 -46.525924739743076 
H 0.28496015 1.59255435 0.15747937 -4.646144097705278 -36.37714764793625 2.111075705434773 
H -1.60286011 0.92896687 -1.19472643 10.427472311629938 -2.2192557878693564 -11.330822484143734 
H -0.78089206 -0.76749829 -1.57650722 -6.812120945953182 34.61426931968388 3.0584079805650752 
H -1.78443823 -0.54660232 -0.25701115 28.173943589739434 24.15170619164446 14.406921728902274 
H 1.35990895 -0.23216244 1.3298549 71.41210832866227 26.799831948314008 36.49705194305806 
C 0.31188592 0.45631703 -0.18460504 -28.04305977754762 24.607041314561535 89.7147095186455 
C -0.99368721 0.08264241 -0.81307808 -29.973801747328437 -61.52301418783924 -29.488947981099617 
O 0.59962015 -0.49648182 0.89873338 -79.93695211588297 -3.7079509453807296 -58.44247167161928 
9
Properties=species:S:1:pos:R:3:forces:R:3 energy=-97077.57638816831
H -0.57766607 0.46109059 1.36525229 3.9766757818444582 -3.295980112314913 -40.8031725280548 
H -1.46973485 -0.49836876 0.17451631 15.106837185954289 -1.442493197895726 -9.043665397327928 
H -1.19874699 1.38881767 -1.21079895 2.5215120860663554 -14.850961906350966 -12.06359467075353 
H 0.07920405 1.98052787 -0.37525199 24.2360714300012 13.243231660544899 8.301685310291676 
H 0.50295449 0.70672307 -1.57328777 -8.343944414927545 1.390540006204316 -1.0481626387183742 
H 1.04143106 -1.14014073 -0.30310471 19.190953097900284 -9.415883951450276 -48.46696912277631 
C -0.46236228 0.01856913 0.27618927 2.4772821468511195 -39.47820842572465 72.98048591721756 
C -0.22712684 1.0291025 -0.79748293 -12.888219369807976 18.576217538263986 -5.383185240082652 
O 0.61975395 -0.96918927 0.51245938 -46.27716912970323 35.27353838872333 35.52657837020436 
9
Properties=species:S:1:pos:R:3:forces:R:3 energy=-97072.84949094352
H 0.95869355 0.11391347 -1.06330767 9.054912909954446 11.497521649404469 -28.339466420521994 
H 0.07077754 1.46985529 -0.10866154 19.13188853739272 0.9646986243570143 -1.7418632076654246 
H -1.685963 0.70821549 -1.28506184 -1.8455478425125402 -4.616767752919117 14.47869354774466 
H -1.07644357 -0.87020269 -1.53877697 -3.36668943549959 -4.539696499819703 11.90574173050005 
H -1.94088718 -0.56182313 -0.01408069 -7.507462691228656 -2.364568670555579 25.54633135135414 
H 0.46475513 -0.95438726 1.28652974 -9.577741409377953 1.1641169639341336 -9.051133698279093 
C 0.26937152 0.3901539 -0.28273361 -53.760110227510296 -38.14706026663674 54.55805988212262 
C -1.22752556 -0.13794305 -0.70177576 57.9329670574748 16.198914335489516 -53.3673070058409 
O 0.92138776 -0.18347953 0.91063597 -10.062218084513969 19.842840430924966 -13.989054993593015 
9
Properties=species:S:1:pos:R:3:forces:R:3 energy=-97081.87891917703
H -0.29232894 -1.1409426 0.88039428 5.996054317391681 -33.78457523565544 38.05569394082118 
H -0.71636957 -1.03666696 -0.76784716 -23.226704112641727 -11.839128233210154 -24.215643290832297 
H -2.04185743 0.77018813 0.58199755 -11.668556176411387 -17.91237001416381 -8.359338743753847 
H -0.69813488 1.11650975 1.46847992 19.3425045851124 6.830301954238874 -0.4845490102198558 
H -0.82792533 1.61241764 -0.330406 7.359550488808398 -11.846919077485982 16.464635487242337 
H 1.57283795 0.37408236 0.09830113 -24.95675654268352 -31.73653303377103 -21.174188993769732 
C -0.24094513 -0.51113947 0.03185385 16.357775223632565 49.94797541662186 -11.151314079938174 
C -0.94940698 0.7878501 0.44445247 -6.928001750264056 19.46019495234031 -18.524914176506083 
O 1.08276519 -0.31464003 -0.47920695 17.72413396705565 30.88105208526433 29.38961649531438 
9
Properties=species:S:1:pos:R:3:forces:R:3 energy=-97074.06300694402
H 0.13194405 -1.44604959 -0.00177127 8.69198407791076 -18.845677583776574 -15.226449769098654 
H 0.630482 -0.24563949 -1.31043914 34.07751572371075 -1.7395247685616295 -69.05430002389306 
H -1.27111139 1.20683235 -0.57053259 -0.49942157778567475 -13.68823353886234 4.657788860382389 
H -1.89000253 -0.44091734 -1.11899528 15.70139007137832 17.934671750586258 21.885714824688513 
H -1.60598296 -0.10159208 0.59273361 -32.52109476876782 -9.638298918583123 72.368953260228 
H 0.99013781 1.16221909 0.49121683 -1.7844578996574691 45.50899544156975 -13.50191140692331 
C 0.15717706 -0.4399253 -0.42030474 5.12029938645213 34.90858891761633 123.23076980816245 
C -1.22010014 0.10325374 -0.33179409 -11.791527004759578 12.240736176150177 -105.9372584534138 
O 0.98778215 0.24414823 0.68541624 -16.994686822660377 -66.68125747613885 -18.423305914311477 
9
Properties=species:S:1:pos:R:3:forces:R:3 energy=-97075.75316661029
H 0.39721694 -1.55292063 -0.25752356 -32.25005995290541 21.81413155139253 10.142920321657918 
H 0.55498537 -0.30072096 -1.30698856 19.435589165624414 16.99390180912756 -53.79802092636847 
H -1.15332021 1.20300092 -0.32210977 13.517923548514863 77.29412816511255 -7.363783869944578 
H -1.84770498 -0.07202647 -1.23418616 0.5440878991460406 -5.880174698901855 18.571548960803725 
H -1.70617143 0.00464812 0.72047502 0.8435053417576008 -6.095475925576453 -35.12769307238721 
H 0.91237709 1.15210346 0.5086725 3.7194593386374892 -27.83853173508092 3.5921982097428833 
C 0.14636 -0.42357056 -0.34256732 23.639746927933626 -31.988225922543176 20.13853558127141 
C -1.22938861 0.1768605 -0.3252502 -32.88083848548047 -78.00120123800154 32.81688834226112 
O 0.99204484 0.15776325 0.62050053 3.4305862167718435 33.7014479944713 11.02740645296321 
9
Properties=species:S:1:pos:R:3:forces:R:3 energy=-97073.29748407665
H 0.19036946 -1.50877443 0.16752947 14.095158703375091 36.5289268127893 -8.185721498507544 
H 0.98850304 -0.36189994 -1.02839758 -3.771569058707043 0.6411983421110878 7.061101861991869 
H -0.90735757 0.95679164 -0.7624612 -29.302226227467894 51.14303875240778 -9.82729626280317 
H -1.10181236 -0.39998935 -1.78887699 -2.8327474212278245 -15.330184208429724 -39.51690532393669 
H -1.9900471 -0.41139933 -0.25734521 -4.8880919091168815 0.8820231809916095 10.18932979995671 
H 0.84292645 -0.07851818 1.69071918 -6.576417668172707 17.198678874014036 -30.695295589964505 
C 0.24295815 -0.36784316 -0.18200951 39.498775305955995 -103.48154401975731 16.56014507179454 
C -1.0839086 -0.09121657 -0.77871618 3.359717993566928 20.96138510621917 27.722831175569123 
O 0.75581117 0.45815645 0.84587749 -9.58260090402671 -8.543521654524904 26.69180958007862 
9
Properties=species:S:1:pos:R:3:forces:R:3 energy=-97069.44044565613
H -0.38173489 -0.1892526 -1.40353192 3.5036078909972916 31.54956818682477 5.511211223552282 
H -0.1507005 1.52841121 -0.55349109 17.41074755251574 -22.441345505901662 -3.9839365641124793 
H -1.06462453 -0.02949003 1.67741343 0.9807605704325222 11.74292731498781 -27.1520030118234 
H -2.16956186 -0.07441955 0.22482825 -66.12710907123389 35.1595359249502 -17.356617193382867 
H -1.14587261 -1.20313478 0.3703162 14.542199008071552 -25.767012648116932 8.138968132105251 
H 1.52564955 -0.8870219 -0.56312776 -18.62224873964893 14.870249285673086 -1.6281156954172933 
C -0.06133318 0.38857214 -0.46416379 -58.35046500243858 -36.402521846690306 3.4499862490933872 
C -1.18604871 -0.1295674 0.54520917 66.60537915901227 -19.667967401190367 17.689869667915612 
O 1.14970993 -0.14067057 -0.04524251 40.05712863229202 10.956566689463411 15.330639563711596 
9
Properties=species:S:1:pos:R:3:forces:R:3 energy=-97067.31780084161
H -0.68163689 -1.34565417 0.30192651 10.094641989389762 2.670261478145477 -4.27693159993593 
H -0.8041044 -0.54566421 -1.23689044 -19.166538228372882 12.910090653190528 -24.535995218199638 
H -1.88823541 0.66609044 1.02955802 -22.02755918081358 -5.127944374739233 20.18905511531754 
H 0.02016122 0.90211412 1.4747789 -49.915242012452914 -17.556400765842326 -19.015707720357067 
H -0.79744954 1.85316394 0.14417013 -8.341008322016291 -55.71274482545251 19.799630297809763 
H 1.27320543 0.58473618 -0.38774965 8.097375458897542 -8.417104830215441 -4.165424103644729 
C -0.42502013 -0.39855243 -0.24238907 67.93174608764048 -14.578591855990144 41.18345229365159 
C -0.87410197 0.7432962 0.6922863 85.50449576825159 71.42996916526539 -43.06646140884567 
O 1.15649838 -0.39212119 -0.4212596 -72.1779115605237 14.382465355638246 13.888382344204135 
9
Properties=species:S:1:pos:R:3:forces:R:3 energy=-97077.52139939388
H -1.09158024 -0.51588035 -0.64113857 -52.19016142606833 -11.94800439259906 -24.869659172635536 
H 0.47828253 -0.16100957 -1.3784877 9.25265924185593 -13.676059899998467 -10.712225891179871 
H -0.77337849 1.62616452 0.75644268 -38.87421284730694 10.805565423216892 43.27496788092354 
H 0.78924659 1.79819638 0.01058084 -5.331066033444725 1.8491112347574203 -2.492899410034171 
H -0.65217859 1.71684 -1.06277444 -10.0493388821274 20.100728048844285 -2.812600321646954 
H 1.19431143 -1.0316569 0.65179038 50.990150844876204 4.069344139169133 10.31133181250987 
C -0.11405237 -0.19370245 -0.45478366 12.259779276336712 52.08812033919174 32.620868565803406 
C -0.24316894 1.38611405 -0.10663693 62.852694300471526 -61.05895023619852 -44.598211356915144 
O 0.27158624 -1.11148664 0.52626036 -28.91050210295086 -2.229854656383412 -0.7215732926461874 
9
Properties=species:S:1:pos:R:3:forces:R:3 energy=-97079.22046902073
H 1.22942843 -0.11031702 0.8726872 5.321520174020005 -5.225810185710932 -8.81430981960963 
H -0.18769932 0.75303234 1.42228964 8.10032815330345 -19.77353274821731 -45.278168259932684 
H -0.59682825 1.60672239 -0.9915975 15.306222322542105 -15.252394347776102 2.5621323860158958 
H 1.19267901 1.75007314 -0.73555413 -13.90314225877053 -3.0973479720916557 18.05315424627326 
H 0.67097486 0.49545809 -1.64403638 -4.315380661549238 -28.685094123496526 -24.205946832134668 
H -0.10882301 -1.8328094 0.4100338 29.18110409413128 -27.23541247841662 8.265457291498553 
C 0.2256597 0.13714156 0.45724242 -3.338464522949628 5.055855941677418 65.7094249523658 
C 0.34080022 1.00316738 -0.75876863 -2.6930885332915477 51.98262495560654 -3.071632256876191 
O -0.56388207 -1.02383325 0.26832304 -33.65909876743589 42.231109772604135 -13.220108150137191 
9
Properties=species:S:1:pos:R:3:forces:R:3 energy=-97081.19190068789
H 0.29973522 -1.56412056 -0.19278637 -11.252118355463221 43.9272749945987 -13.260294439583694 
H 0.61646644 -0.06118415 -1.31651683 7.448604463583191 -15.551318488832298 -12.194562676239647 
H -1.16535823 1.16132834 -0.73081023 -2.895867489714587 29.98929805676474 5.811411308054565 
H -1.79640638 -0.32419085 -1.1200642 -29.68360880663798 -28.251320784668856 -29.507845225297423 
H -1.68414097 0.02125057 0.626473 -4.734952607523435 7.294534292468203 -2.472847176137026 
H 1.0382272 1.07332395 0.52672621 4.881569893360861 63.37448046319511 -11.124966322104898 
C 0.18061471 -0.39311563 -0.35366166 21.090726165229423 -29.17106849061433 6.141734804602335 
C -1.22191982 0.14634518 -0.37240344 13.800029189667852 -10.57668180227512 30.674037376063016 
O 0.9512015 0.16585207 0.6840914 1.3456163616768493 -61.0351970548151 25.93333235064277 
9
Properties=species:S:1:pos:R:3:forces:R:3 energy=-97072.49944527414
H -1.21937317 -0.21973429 -0.85362502 30.076044423782946 -12.00822275698492 16.807164639822236 
H 0.47006706 -0.27393948 -1.580563 -18.164021399199324 12.416774867973533 59.479358338006016 
H -0.65742043 1.60016518 0.87384897 -13.616561328987865 1.5368501643906864 33.01658179232104 
H 0.94949085 1.75067753 0.01542182 -1.1346338952537829 12.496124083303368 4.935017219570923 
H -0.65858308 1.85170367 -0.84862727 0.4150255080817273 20.302864290260093 -9.525318632552109 
H 0.94821491 -0.88317895 0.96237074 1.260759007585794 -3.935170859394193 0.5350815882975001 
C -0.11602857 -0.11121739 -0.49410636 -22.932033511679503 -20.024367102551754 -28.289517266399248 
C -0.10280706 1.42262628 -0.0165775 32.29463496604519 -65.2765089621548 -42.63883655214436 
O 0.17477573 -1.22557849 0.47353075 -8.199212584554132 54.49165627515797 -34.31953112692201 
9
Properties=species:S:1:pos:R:3:forces:R:3 energy=-97081.23741713905
H -1.16870109 0.35326715 -0.78332412 -47.049183692206476 26.15366264437579 -35.19140012229201 
H 0.11085322 -0.90946698 -1.10465201 -11.19776031868941 -10.160687478398362 -22.783567530830503 
H 1.88727618 0.32996671 -0.21902824 -26.230398310119025 18.244663159469898 -9.061548764530935 
H 0.93199023 1.49668874 -1.3619354 5.408849964993115 -7.300865391035729 14.220083764807994 
H 0.78834523 1.58009839 0.43482901 -6.0787024868730155 21.224559114364006 18.874930603173897 
H -0.32750483 -0.20010114 1.51202329 -2.9346758551050005 -0.6784319371516837 -10.240489677367977 
C -0.29138737 -0.11765419 -0.47543682 71.11807925688623 -1.535762766491001 47.44870933338876 
C 0.89674022 0.9073653 -0.3980296 10.300882357447678 -40.73970382818035 -22.454313644866723 
O -0.59449805 -0.75990304 0.75159793 6.662909083665906 -5.207433516952561 19.18759722433855 
9
Properties=species:S:1:pos:R:3:forces:R:3 energy=-97077.17615924726
H -0.24794633 0.11226694 -1.56074612 -7.725226868216938 -6.442311980197419 16.747377914297324 
H 1.08912614 -0.76277886 -0.74665093 1.3979988205871101 23.047620232370832 -3.981658601882058 
H 0.825496 1.24620044 1.21960959 -14.801739660529758 -12.85245975032824 -5.980638643786542 
H 1.21031195 1.68413431 -0.42142339 0.7445971940859851 11.471524894600972 -2.309890462099199 
H -0.52138669 1.7090714 -0.05061956 0.37313400797028645 16.57470339678303 20.74649654526877 
H -0.73935572 -0.6232572 1.18830138 5.449810595583015 -1.3748432930111452 -26.75013893153732 
C 0.18019198 -0.11351817 -0.53205259 27.94706044890319 -50.113007317491146 18.952308983924368 
C 0.42381713 1.18371263 0.17395282 15.346425213483258 20.325286980429286 -27.904503703184634 
O -0.55531129 -1.01551663 0.29223021 -28.732060937687198 -0.6365131631561723 10.4806445273572 
9
Properties=species:S:1:pos:R:3:forces:R:3 energy=-97077.70547857959
H 0.19228704 -1.54578893 -0.1204236 -5.2304431885398 2.811501065536804 9.429497177064661 
H 0.3888949 -0.43908358 -1.41869415 22.312249911848046 10.562423490011415 8.739713375034363 
H -1.18831143 0.97972718 -1.05605046 -4.4043516288507725 2.5034555889905517 19.284115942601368 
H -1.83800976 -0.54600102 -0.79042541 -39.47215836674515 -32.984593083769326 -15.207170690523855 
H -1.67074096 0.49273016 0.64347612 6.548396716842751 -5.050764026103537 1.7874271955580279 
H 0.59141672 0.05352619 1.3867776 3.0641615842829313 4.3491137128604205 19.11329130591969 
C 0.14154457 -0.44321096 -0.32824915 30.15825028201392 -13.764113041809972 8.753905281319463 
C -1.20652413 0.14113623 -0.30185404 -13.681393723065845 44.78958982979666 -18.458128735164436 
O 1.02145085 0.28997873 0.55840105 0.7052884122139282 -13.21661353551301 -33.442649665988235 
9
Properties=species:S:1:pos:R:3:forces:R:3 energy=-97080.88125515865
H -0.64225605 -0.53099335 -1.29307844 19.761112458575752 -11.777820099282517 6.147812137465898 
H 1.13461907 -0.05557322 -1.04733466 4.2911673815997515 -12.191369260161292 1.1660273216401242 
H -0.34788021 1.88723854 -0.99102683 -3.70236335660939 33.63889593426583 -35.75416826038435 
H -1.41445458 1.05214177 0.17494656 -25.475131098256192 5.817466110318244 2.7440954397878117 
H 0.14486316 1.64872522 0.7075832 5.510856663059363 3.088672505315102 -1.6430997301614878 
H -0.41273849 -0.86667142 1.27456799 -8.949205264401918 9.684599301345633 -10.0526200489632 
C 0.16195726 -0.2110861 -0.54529803 -50.96459284385993 62.17146263982893 8.395705503609415 
C -0.40667277 1.24463673 -0.16163358 32.442281544551015 -61.31433932917275 27.286577099112073 
O 0.28052709 -0.97347007 0.60467329 27.08587570116259 -29.117567802457177 1.7096693520726625 
9
Properties=species:S:1:pos:R:3:forces:R:3 energy=-97076.32137371568
H -0.57128533 0.46247813 1.36214826 2.764753628239744 -2.4395410204026007 -39.16927239757244 
H -1.46780969 -0.51492354 0.17428963 19.344853696605618 3.6593441406826814 -8.22651137086674 
H -1.20664149 1.36987583 -1.21016836 3.654599670675438 -13.115104882286312 -11.73533331700571 
H 0.07067589 1.98291549 -0.36704378 23.926969386902474 12.831964019359685 5.871754183650308 
H 0.49391985 0.70178762 -1.57884366 -6.562569649991105 2.2922513740317805 -1.366222374002733 
H 1.04628303 -1.11210303 -0.28124567 37.01210027059516 -13.6085937973761 -77.5215591552723 
C -0.45920508 0.02130856 0.27735943 -2.006200506256922 -45.28954265541119 70.89479389710522 
C -0.22591567 1.03176495 -0.79943246 -16.26018926642785 15.939687925608647 -2.577296665559165 
O 0.61724948 -0.97270144 0.51167037 -61.87431723034256 39.72953489579341 63.829644827881474 
9
Properties=species:S:1:pos:R:3:forces:R:3 energy=-97074.197676751
H 0.96573985 0.20879202 -1.13444824 18.148461055426505 -20.779291612132134 -9.324033810647721 
H 1.3268567 0.62304255 0.57887291 -11.897878551140384 12.476980188327879 -8.613615536586423 
H -1.30431466 0.50431575 -1.10965763 -35.55582664631749 -31.761962966114275 -39.28134671632389 
H -1.37172906 1.26600379 0.48641266 -0.3268371826709156 -27.25194163798447 9.277554368907182 
H -0.71143814 2.10066328 -0.69068869 25.429244567038925 -27.332188519846536 -10.209224319654664 
H 0.60590132 -1.79382183 0.01911367 8.473724227725024 -8.333114311309414 -9.314734602000684 
C 0.55023425 0.21318072 -0.12179645 -16.61697554545041 -14.881444622173559 27.857270079258488 
C -0.73608935 0.98521167 -0.385565 12.85795840252109 83.46208621633828 55.75878314176373 
O 0.17026385 -1.08298665 0.49744701 -0.5118715129533941 34.40087726489423 -16.15065379053706 
9
Properties=species:S:1:pos:R:3:forces:R:3 energy=-97072.59315015822
H 1.15485125 0.35279168 -0.77304982 44.60428038903138 -5.743077184426125 -39.69716198122262 
H 0.95248811 0.77088463 0.89113681 2.925115765827721 3.7915204978152324 4.68976689654468 
H -1.09181852 0.38926149 -1.35258755 -22.74682249406109 -4.188833396924656 35.251201077669485 
H -1.28163289 1.20799026 0.52515168 -28.67193150987983 -7.893746268784127 -18.84499929413795 
H -0.45907113 1.81215811 -0.93304817 9.534636814335892 45.12785951317735 -4.1917932062568415 
H 0.12990329 -1.07877562 1.29885338 -1.3278492049364037 -14.076107302441233 -23.37497206137595 