9
Properties=species:S:1:pos:R:3:forces:R:3 energy=-97074.78088962095
H 1.27266838 0.61605511 0.29452188 7.3787358875205165 28.57987266457308 5.171330009369325 
H -0.36913546 0.96917318 1.09395517 -3.030581503886754 10.327033268987227 38.740269616815034 
H -0.19007076 1.73384795 -1.43131626 -3.7441848932790847 -19.872087521217054 10.723689223236862 
H -0.28078976 -0.07821817 -1.64347345 20.030592663046136 -1.0476136035738222 -14.689922664945408 
H -1.53448212 0.67466507 -1.01107593 -65.92693654947116 6.582362189079057 18.832383344023714 
H -0.25925179 -1.52344439 -0.01074062 -5.381476471954574 6.275849979145993 0.45120372239089446 
C 0.19970106 0.43197387 0.36250323 2.943071468114568 -62.70617543778095 -36.78619068883814 
C -0.49809287 0.74599562 -0.9490227 60.24023922670321 7.205422212462129 -28.735517606037888 
O 0.30968448 -1.0350902 0.61090673 -12.509459826792861 24.65533624832434 6.292756229806644 
9
Properties=species:S:1:pos:R:3:forces:R:3 energy=-97074.75547467025
H -0.16287301 -0.64302268 -1.31618949 -1.4368937509139212 -4.617717595577402 -7.7542569532575065 
H 1.27993147 0.23446093 -0.84324063 8.596425874695646 10.635874431455713 0.28941859954705806 
H -0.1512842 1.86927971 0.33956012 12.295078797250385 22.782901099402345 9.304210440212561 
H -0.73139242 1.33792963 -1.27271822 -26.103840373105026 30.45452648467317 -8.16388816139848 
H -1.58192605 0.89916371 0.35305249 -10.598262559501267 -13.243933666604455 -8.122297859832864 
H 0.47292663 -1.9107182 0.44558433 -5.698945668357752 74.12888126571656 6.81448547312 
C 0.28678675 -0.08054401 -0.47353047 -31.90907592514916 -18.33244949154593 5.7980933518807705 
C -0.66671069 1.10165901 -0.21085351 38.260144904919855 -17.6075582716115 -19.038950998690478 
O 0.3402451 -0.87922676 0.65828068 16.59536751434019 -84.20052544172954 20.873184922597897 
9
Properties=species:S:1:pos:R:3:forces:R:3 energy=-97076.25386764831
H 0.606002 0.64918622 1.17146887 -3.9459796182334883 -5.65061160250041 -3.2099333797141685 
H -1.06674992 0.70686103 0.79999274 -39.99687469327477 6.576259953973516 11.682181260236238 
H 0.5788366 1.94243646 -0.78751912 20.223097665921873 43.672548775589476 22.845476876028744 
H 1.164342 0.29716602 -1.01029825 6.975282807032062 8.424774720744521 -22.699107426790047 
H -0.31403293 1.05316446 -1.79942543 -10.56332827146993 -26.228325494929656 13.880196621519804 
H 0.18340847 -1.43015696 1.17742187 7.61365652341027 -11.145137138106698 23.52438907070428 
C -0.158169 0.28862165 0.42046268 19.15202496458417 9.975469345853668 23.807699506040564 
C 0.27301983 0.93475072 -0.84621461 12.525545489289298 -32.773878612902784 -41.693752593718315 
O -0.15884267 -1.12124729 0.34785667 -11.983423681438437 7.148900052278366 -28.137148748486062 
9
Properties=species:S:1:pos:R:3:forces:R:3 energy=-97072.76349913732
H 0.27779538 1.4809013 -0.01350661 45.4978641394058 50.24254047951094 -7.300312798428037 
H -0.86106379 0.91704885 1.09270938 -14.69623479037619 -15.374206628961812 -9.570384575605162 
H -1.30956911 0.51092629 -1.74086522 -4.516851657357933 22.870337614269648 -0.25023077142174927 
H 0.24802665 -0.25499284 -1.69149183 26.504064462883726 6.4062132158983704 -6.608204787146502 
H -1.0961677 -1.00701634 -1.05618952 -3.6185376668288325 -6.0435405212007405 19.15620735541535 
H 0.81671158 -0.27953947 1.71474461 3.926982765067771 -20.24592946435213 -49.67497332364323 
C -0.17310169 0.58438358 0.27766879 -9.426631047595151 -80.97500088689534 -22.69093711977932 
C -0.61157331 -0.01498934 -1.08315879 -37.88204349258558 -8.964431206639608 8.089330848917752 
O 0.71021693 -0.51367675 0.71143624 -5.788611526792565 52.08401858419172 68.8495051716909 
9
Properties=species:S:1:pos:R:3:forces:R:3 energy=-97080.42556566827
H 0.55293176 -0.66727344 1.31457708 -2.9391796034397935 3.30071272411169 -3.5187223660566063 
H -0.51146853 -1.47636012 0.04861556 10.57264052414848 24.552414096410157 16.418382537321687 
H -1.60465357 0.52905323 1.35652704 3.0116451275944107 0.36970698514575945 -9.09657317496181 
H -0.50369184 1.67252548 0.47329437 -7.78042328047066 -39.141730517945284 -2.173909991049318 
H -1.64959572 0.59578893 -0.40831613 -13.388109346907038 0.37097225620242735 -21.351393347681853 
H 0.76367191 -0.68014453 -1.42645939 -0.6113405539800276 -6.903950927797946 -8.282582919052816 
C -0.01418772 -0.47246329 0.3693244 42.72315554348028 -55.1781624678156 -42.54626187468236 
C -0.967335 0.59570357 0.42586631 -39.130104728404916 77.83504399295909 54.27980815937092 
O 0.92278643 -0.09094678 -0.68251434 7.54171750380032 -5.205006141270274 16.271254162613197 
9
Properties=species:S:1:pos:R:3:forces:R:3 energy=-97079.83765702632
H 0.7287072 0.46714388 1.28020736 4.263253154163985 14.48634327931595 -2.0937805054708543 
H -1.03357721 0.72766069 0.9374668 20.240343061401838 -3.9180879213976065 -11.915180866030582 
H -0.12946847 1.91515222 -0.91743845 -9.043333367434892 18.24391727803162 -13.622093184170017 
H 1.40427448 0.94783342 -1.05163191 -37.37798891197103 -2.167218402883641 2.7887854775691086 
H -0.18308531 0.14457987 -1.59029905 2.019422410925945 23.042534245902182 5.695385833576012 
H -0.88460342 -1.37638311 0.81042614 -45.13278422798367 -20.3623427023129 32.28590969478468 
C -0.04370833 0.33751561 0.49418488 -27.084449158443586 -38.43890031276086 18.141992401617582 
C 0.24857255 0.90355423 -0.86808128 50.32247786207986 -17.660182638015257 -6.018775834464609 
O -0.14769496 -1.10979505 0.31415209 41.79306036308261 26.77393598829947 -25.26224301741132 
9
Properties=species:S:1:pos:R:3:forces:R:3 energy=-97067.16714869025
H -1.25878108 0.11236654 -0.87516619 3.4487399511734638 -10.824283608436671 -2.742971281435683 
H -0.52324401 1.58118298 -0.23803313 35.4739208008113 -34.95458454436988 -20.825274194854167 
H -1.47509931 0.55053976 1.45606135 3.596055685607308 -40.90030431579869 7.980553112675709 
H -0.33699565 -1.08198404 1.25115187 -13.91369250862168 -42.54015963957682 13.888402503161926 
H 0.16061256 0.51016271 1.9045129 13.332418447276906 -5.616508575022705 -7.66942805887157 
H 1.64617502 0.01425508 -0.69703302 -9.929057495912781 7.248723653797917 6.369947250831759 
C -0.34595296 0.39859502 -0.31667774 5.321260479210811 0.7680954239444026 56.97829217842426 
C -0.51941434 -0.04143845 1.2192321 -19.601625456920132 96.95864126959432 -40.523821549192945 
O 0.7621657 -0.37445945 -0.85403498 -17.728017530983095 29.860380335868104 -13.455701146560337 
9
Properties=species:S:1:pos:R:3:forces:R:3 energy=-97076.4889663343
H -0.87084632 -0.8264986 -1.10752429 -19.170558161720688 16.099593522093702 17.158292180810665 
H 0.68335875 -0.30974401 -1.41258178 -4.968183448421856 20.78318940591214 15.161159648096703 
H -1.28119962 1.26721468 0.62776063 25.85980670247254 -6.924986207342681 -9.984704520164193 
H 0.46048608 1.64870767 0.53700139 28.279083227010663 6.713798593878562 9.693409951721495 
H -0.69942092 1.98266798 -0.84951774 17.470369448915182 -9.404817869443882 5.26732815219271 
H -0.00106107 -1.74052453 0.48997743 -11.046979615157548 -40.73299801016212 9.30716550626056 
C -0.09847947 -0.21592462 -0.57229749 48.02885330727617 16.139041045028208 1.3860160989117312 
C -0.34477535 1.26257691 -0.05011581 -82.18776615926416 -28.7476082374285 -34.431007791865994 
O 0.44033237 -0.9131852 0.57527907 -2.2646253011103257 26.074786571643525 -13.557659225963679 
9
Properties=species:S:1:pos:R:3:forces:R:3 energy=-97067.02817140473
H -0.82569259 -0.10908545 1.28581799 13.727350217724856 37.925610557835796 -21.589712546691015 
H -1.12265562 0.96960082 -0.30031733 2.388415531801682 -42.16046685539807 14.014282150537303 
H 1.44377666 0.60042457 -0.76013819 -20.687165175025733 35.24706611968017 25.07668099676313 
H 0.48113429 2.15169754 0.26687107 35.776729691615984 -45.982970485517534 -14.778649353111353 
H 1.51140146 0.79617778 1.04581335 8.31717806226484 2.2378874081527362 5.648821012720122 
H 0.42029348 -1.60091412 -0.16311183 -48.49590315631211 30.96022105579509 -9.751836540506016 
C -0.41079578 0.21568952 0.2367005 -51.73452391878438 -26.741976925273924 11.309236983633399 
C 0.86617929 1.01508737 0.1822986 4.827961295488469 10.261304394198055 -7.933173632760838 
O -0.46213489 -1.10092878 -0.40116033 55.879957451226396 -1.7466752694723209 -1.9956490705847278 
9
Properties=species:S:1:pos:R:3:forces:R:3 energy=-97073.44560840963
H -0.44539327 0.09192985 -1.51170028 11.562467882302917 -25.26796341813987 30.666386458670686 
H -0.22666318 1.38930181 -0.73232874 17.51301987449642 12.226469563139146 37.74453568402774 
H -1.08229381 -0.05314883 1.63462699 8.274029591844057 11.387403935379826 -12.46046881607573 
H -2.14031625 0.37256367 0.22775826 -5.893329011771224 2.6100585294332244 3.8638223786654255 
H -1.44086645 -1.24720786 0.39534896 6.69973119880335 13.64125960974539 -1.8686879544149 
H 1.45387633 -0.90106907 -0.57809166 -3.6568456157376015 -10.291539273421918 -8.322158510660346 
C -0.14578485 0.32337912 -0.39624167 44.21905219220734 -8.67046261173694 -63.89592392363625 
C -1.20845323 -0.1430245 0.52191596 -25.936110729354837 -31.98139559331505 17.097352837228506 
O 1.261099 -0.11358593 -0.05878773 -52.78201656861147 36.34616807309515 -2.8248569679840863 
9
Properties=species:S:1:pos:R:3:forces:R:3 energy=-97082.46389699081
H -0.93898831 -0.7221073 -0.84928875 -1.343965698780053 7.111825357258007 -22.415051110015483 
H 0.77745713 -0.27305893 -1.2816402 15.74961148423624 -6.338285828888898 -19.2671990195513 
H 0.05891665 2.05082228 -0.88177961 -1.442133894118622 -8.50664499161932 -8.275641122646316 
H -1.39486811 1.36065266 -0.09421613 2.2894907826354145 9.280522478986697 7.307124154519415 
H 0.17836155 1.57333592 0.77325219 0.7436485372487458 -4.862047721471523 10.362956531771387 
H 0.93707799 -0.62688092 1.14625194 24.24309623388096 16.122127679441277 11.37996172249168 
C -0.00902536 -0.21823776 -0.53733526 -12.974350295703026 13.941435977826742 35.52863458389908 
C -0.29220333 1.2691071 -0.17298495 -12.450769985736006 -4.2126185954763375 -12.116127728936704 
O 0.25013732 -1.00082832 0.60804103 -14.814628349484702 -22.536313170235594 -2.504656825710706 
9
Properties=species:S:1:pos:R:3:forces:R:3 energy=-97081.6344879204
H 0.58631259 0.24072075 -1.47574735 -1.4993319722989187 3.398510943283736 20.333077824705114 
H 0.25009071 1.45793483 -0.22999342 9.600708391407519 51.400883680769425 14.649726888930534 
H -1.46643384 -1.16305505 -0.27299614 17.647599890890323 18.85822712791221 -0.6064952891838279 
H -1.56709005 0.36098944 0.76714404 4.522930176042544 -15.497663643939088 -17.116382893383527 
H -1.86881383 0.42447377 -0.96376868 -14.190024387099022 7.829293337441041 -16.814335299690722 
H 0.88870898 -1.26439141 0.41201162 -2.795123691062914 27.63742597215456 -1.2258887538909704 
C 0.22531367 0.42418824 -0.39484575 -17.453418137054765 -94.54450765093509 -31.115492463630225 
C -1.2136044 -0.05055743 -0.24086549 -26.964667002889566 10.950271165527282 24.95080609267194 
O 0.94200527 -0.28414828 0.58831506 31.131325546243755 -10.03244211803512 6.944983893471685 
9
Properties=species:S:1:pos:R:3:forces:R:3 energy=-97072.07885353068
H -0.58095455 -0.72609207 -1.1609637 -46.69390814919722 -6.8805534927284855 -23.221925253824136 
H 0.94255664 -0.2145415 -1.3193854 10.059147993824453 5.612265707318151 31.103620023312182 
H -0.96380543 1.76869371 -0.96205929 34.43031527237481 -12.520384796094717 2.7612507128682373 
H -1.2109186 1.2925516 0.54219316 29.580776777123337 -8.82989980890861 14.345556675564405 
H 0.60099293 1.88951142 0.06159963 -24.565263653270563 -8.055945243173207 7.603919746797056 
H -0.19902136 -0.41956738 1.27571452 10.336955033683704 -18.421968308170968 -0.7538750579541855 
C 0.10515838 -0.19778228 -0.54334527 6.0759822133922325 13.868569646158392 0.35243312996067844 
C -0.31088314 1.24643866 -0.15265439 -28.541411744749308 12.620692212601261 -40.899170670878185 
O 0.24327514 -1.01351764 0.62094538 9.317405070997513 22.60722645464028 8.708190694153947 
9
Properties=species:S:1:pos:R:3:forces:R:3 energy=-97077.98602456081
H -0.60782998 0.61718758 1.27973792 9.087021386431857 -11.813227529911428 4.324333610450684 
H -1.361732 -0.24094951 -0.07736743 -48.6020886877464 7.365283933568463 -6.3016048264559945 
H 1.24432767 1.21731676 -0.58456094 -16.81376847723047 4.903690199163188 3.949375809710805 
H -0.02472561 0.98548138 -1.8391904 -3.2868540335406706 -8.32338346380143 38.22253184714437 
H -0.31918176 2.10630893 -0.50332188 -11.031552083341946 29.9824036932001 9.257964605218191 
H 0.79941522 -1.23858235 -0.43428861 -20.85248997369352 2.881249873673776 33.90755673639305 
C -0.42626143 0.08743796 0.3153228 1.0275957584870263 13.68525119893027 -31.923555985948575 
C 0.11248185 1.14626973 -0.68630183 40.53964040195391 -36.27360056833054 -31.25442325744393 
O 0.25248344 -1.14337633 0.41450627 49.932498080322304 -2.4076661506713606 -20.182177353247553 
9
Properties=species:S:1:pos:R:3:forces:R:3 energy=-97074.67164351972
H 1.38712306 0.43264927 -0.42653735 3.8103098322978033 -9.039566013970006 -14.322217345726225 
H 0.67349172 0.88097035 1.0231971 -7.109866380889107 -4.330724000070537 10.893833198637823 
H -1.19468834 0.38610573 -1.34651305 -11.090141129609844 -19.557164282600816 -11.22010948795372 
H -1.32594932 1.09547635 0.30803306 -50.6280212562179 5.651731017568352 19.836635029388372 
H -0.55308119 1.88205482 -0.94193241 21.29145483706298 58.5904158912078 -21.08528443244681 
H -0.61562596 -1.53329164 0.38178023 38.434275610679315 37.53723637777526 -1.1472107132734828 
C 0.43151114 0.2882154 0.11042636 36.003171707022915 -21.80154287516236 5.343783964168964 
C -0.72394562 0.93756136 -0.54703509 -2.506539909532626 -34.42695465552889 13.037430046274205 
O 0.32207508 -1.11834675 0.3908837 -28.204642124992496 -12.623431459218791 -1.336861444890177 
9
Properties=species:S:1:pos:R:3:forces:R:3 energy=-97064.44837585806
H -1.25085522 -0.24272628 -0.92731325 23.5814934690219 34.52117881006664 27.632197687160325 
H -0.21221488 1.44604787 -0.54823432 -31.969251599977344 -31.168879312966922 9.405968115859032 
H -1.34141509 0.53491001 1.53405816 -38.0550879862664 40.564358841669225 40.70905628323229 
H -0.75254641 -0.99499439 1.33501883 -26.554897053686148 -53.34932521549103 -6.219952746653761 
H 0.39622473 -0.11405303 1.79284038 40.59077181966006 34.08574650759485 22.31598287650258 
H 1.57250413 0.27581029 -0.70385639 -35.22803843516724 -18.91642959651893 -0.059757079998749914 
C -0.3677427 0.29206774 -0.32894846 -13.340281626636573 28.890940798966984 16.43080401278429 
C -0.49297004 0.01995695 1.23236023 -0.17801426968690767 -12.716475721815222 -82.19954729136161 
O 0.74613294 -0.29134387 -0.83458332 81.15330805438074 -21.911116297326643 -28.01475067170335 
9
Properties=species:S:1:pos:R:3:forces:R:3 energy=-97076.00040973187
H 0.60336104 -1.03505504 -0.98210926 -15.339127670762796 -35.27889355656955 -36.76386286435266 
H 1.43133878 -0.36723157 0.29656294 12.431718584802148 -3.4476727122315696 13.540653366335116 
H 0.217221 1.81882326 0.24206685 2.95865434248727 -16.094397254267726 -25.04889839546353 
H 0.99659482 1.21932402 -1.43987087 -8.145614659071159 18.229858183703733 18.764496274929822 
H -0.70963126 1.09716592 -1.18658009 -33.05151015124714 7.813884778762183 -8.199397572637395 
H -0.56285589 -0.5170329 1.6429244 24.215300588549848 9.551572710522708 11.116844633757083 
C 0.4428369 -0.36394614 -0.18391502 -2.385331211259608 67.2279031912823 74.57425312020051 
C 0.20383226 1.07587586 -0.63055748 48.844863016427446 -6.486101979804385 -16.201146050699123 
O -0.61000191 -0.67414247 0.70132138 -29.528954025747048 -41.5161533613977 -31.782942512069827 
9
Properties=species:S:1:pos:R:3:forces:R:3 energy=-97075.84333796846
H 0.09748948 -1.49392357 0.08453477 4.237839823315391 -13.637128209219215 8.455200517156879 
H 0.08267871 -0.7138419 -1.47662074 1.2284702863093078 23.456211475453983 32.222967499454896 
H -1.3699711 1.04727579 -0.48876566 -14.369166372601198 -2.3728824619129347 15.145957422279944 
H -2.2247838 -0.61501775 0.05930918 48.00146677020612 39.904849050957324 3.1846884354541847 
H -1.08044012 0.41683027 1.28084276 -15.364926393451519 -9.31565361331176 -40.5878713013802 
H 1.00338381 0.83331765 0.94351245 -12.077815036743745 -23.66673384331099 -25.396457800922892 
C 0.03634166 -0.47393233 -0.32784941 5.525296405943192 -24.729492753291336 -3.2810031924969976 
C -1.25796615 0.12811559 0.14677928 -35.91456597260372 -7.40412905941132 13.879466155755132 
O 1.13697607 0.29260596 0.11055213 18.73339930380512 17.764959414046242 -3.6229453636588556 
9
Properties=species:S:1:pos:R:3:forces:R:3 energy=-97078.75234838882
H -0.08940695 -0.58909499 1.4623229 -9.41880107122479 -11.570870610238764 -36.15446112778374 
H -0.72948053 -1.29821542 -0.17754326 -28.41305966049188 -46.357956745962525 -11.786559600395584 
H -1.8698717 1.09779187 0.70806205 8.105236266615117 -18.35143567232223 -21.198902690200867 
H -0.29137333 1.63273413 0.27660654 23.49552737225232 15.635687284652175 13.288691296185405 
H -1.06276089 0.96158551 -1.00858381 -22.34726127824741 0.7794152716547604 -26.14781891825839 
H 1.63440833 -1.01327242 -0.12179353 18.54576209632546 -30.89361704507356 9.666874834162865 
C -0.23570735 -0.5043678 0.29795775 50.35279337713489 74.62654901417439 48.21003964826261 
C -0.9759172 0.83091201 0.05523206 -3.1570516901433106 -9.593236532993211 26.646864590772307 
O 1.0612317 -0.29509545 -0.33689838 -37.16314422639936 25.725466221930034 -2.5247280327445965 
9
Properties=species:S:1:pos:R:3:forces:R:3 energy=-97081.48580021631
H -1.24487982 -0.16358246 -0.71107577 -36.69293297845333 25.287759514690965 -17.413587593922227 
H 0.37051729 -0.05981461 -1.49282135 -10.572836184621162 -1.0981295801568147 15.690593170749493 
H 1.25071147 1.28114573 0.44567967 8.205958720487951 -0.06524743144427235 5.600167961001257 
H 0.03477535 2.0883175 -0.61171537 -1.6296359179989692 -3.2668089145698045 22.79885869322576 
H -0.43916702 1.40488742 1.09247296 -2.0805977328963676 12.910272083810652 7.299735303578367 
H -0.54970915 -1.80179741 -0.09256123 13.069804146666044 -1.599219608154984 13.669266331222788 
C -0.20589459 -0.02816254 -0.48841445 39.71105506060399 21.320049725779466 -22.076018943701857 
C 0.18450336 1.30766322 0.1972907 -18.13446362379304 -20.47898598955671 -39.55514449522476 
O 0.05239358 -1.13380473 0.30485512 8.123648510004884 -33.00968861457745 13.98612957307118 
9
Properties=species:S:1:pos:R:3:forces:R:3 energy=-97077.94654233802
H 0.91253285 1.22665734 -0.23669731 -5.401416052852299 2.5013697297696718 -16.438853366048267 
H -0.34899619 1.28071819 0.93628957 -19.914728460229913 -4.758385617224292 -14.344930562051827 
H -1.04424914 0.75895807 -1.77604595 -6.220338138493889 -18.447471761419102 9.01212255748972 
H -0.11936883 -0.7500972 -1.41949801 13.593540985011208 -19.721637661757182 -15.979243358258381 
H -1.65244684 -0.5492135 -0.59559952 -26.736492502933633 -10.593777784303219 8.160135037786153 
H 0.51016943 -0.62933373 1.74459425 0.11874456213828945 15.665788166097776 -43.529758134269265 
C 0.05074272 0.61965379 0.12102496 17.44939227460173 -26.766318273896438 23.659941460356354 
C -0.80573588 -0.03909528 -1.00401141 22.32222029520743 78.74258604287242 5.176648416763099 
O 0.67647489 -0.52019055 0.74771161 4.789077037551077 -16.622152840139645 44.28393794823241 
9
Properties=species:S:1:pos:R:3:forces:R:3 energy=-97060.40719155381
H 0.38521225 -1.00310128 1.1527838 -28.710591647639426 -3.9026758052556074 -12.418276117418465 
H 0.15651179 -1.34845397 -0.56198746 -2.4556847881303203 -76.16293077925167 -62.49936231815756 
H -2.11670353 0.07645942 0.56144534 -70.46449382812288 -17.43640634832097 70.07911266038386 
H -0.96869358 1.25018316 -0.06746172 9.306788415167759 25.95010697516726 20.57980212329222 
H -1.66643812 0.10407546 -0.98541659 2.65654627192109 -8.689948023173836 -5.40458693833077 
H 1.47407874 0.25877419 -1.0670677 -29.306190427226515 3.8218028098809578 64.67041566630573 
C 0.02239098 -0.63475417 0.13818704 29.356528530652522 107.24541117076703 84.65648904980128 
C -1.26029282 0.22241591 0.04844547 56.9331266264033 -21.02160465642607 -90.379532973467 
O 1.10159301 0.3511556 -0.07914041 32.68397203279552 -9.803755343387078 -69.28406115240928 
9
Properties=species:S:1:pos:R:3:forces:R:3 energy=-97079.08420348163
H 0.16397687 1.28161143 0.74064065 -19.816546035038787 -0.242235965925915 10.394639298493086 
H -0.06082906 -0.3833724 1.38900909 -10.550000828727764 -20.044905523077983 50.4566689291705 
H -1.57090835 -1.03713939 -0.68951898 25.323443241623718 13.84538921634045 1.132282412118476 
H -2.16519412 0.27066708 0.27007539 15.307934648133322 3.6211203850682163 -7.270841587958151 
H -1.21969153 0.74273479 -1.16068134 -1.893194132162884 -7.112355419265815 -10.388193175284043 
H 1.7376921 -0.81537532 0.28099031 -29.578920967185482 23.129143057678995 -8.962849321363512 
C -0.01100293 0.20056775 0.51667653 9.302154226517844 11.169942142758414 -33.47809622871168 
C -1.24468188 -0.00312786 -0.34720876 -45.04375989873505 8.389361361010378 19.496070782282604 
O 1.13881417 -0.1520369 -0.17954023 56.94889093139612 -32.75545925458674 -21.379682294568326 
9
Properties=species:S:1:pos:R:3:forces:R:3 energy=-97074.70763821177
H -0.21394466 0.78547523 1.30134876 33.092831271435195 19.71100559025382 63.23311992205703 
H -1.37627349 0.00086076 0.48413446 -51.8267677521744 1.5649315925940164 -9.397477637165743 
H 1.1360059 1.206734 -0.90761372 8.789068432812783 9.63927603512548 8.983488536678697 
H -0.26423845 0.60366854 -1.71215531 -4.218065071543137 -28.68685743939274 -21.051273899010734 
H -0.57711865 1.87471208 -0.82081345 -9.01962761889333 51.07626161181346 6.411058480694571 
H 0.0245252 -1.5107913 -0.48336577 0.8010316035123045 11.094106515189504 12.639270470937547 
C -0.34263969 0.21811123 0.44411169 30.69305913147071 -66.57372129453253 -85.27079652803978 
C 0.06482822 1.03240348 -0.7792194 -9.435983618189283 -23.171486355609165 10.737827767574867 
O 0.28856392 -1.12536946 0.38628464 1.1244536215691587 25.34648137291608 13.71478288627353 
9
Properties=species:S:1:pos:R:3:forces:R:3 energy=-97076.1019554027
H 0.70844313 -0.44886745 1.18594557 10.07644082214628 -7.01505524493332 51.255358536115864 
H 0.64435334 -1.21926054 -0.3534988 11.031770274414509 -12.980989707742653 -4.902786603525719 
H -1.64242844 -0.75443289 1.21882378 -6.479383117754638 10.095194581997454 -1.596734127241417 
H -1.64076827 0.36507555 -0.24631725 -27.787281735270113 33.96956687638024 -10.801332042080713 
H -1.54472585 -1.39609615 -0.42340674 -4.2308624522774965 -6.30521090825855 -10.318608010451495 
H 1.85818133 0.68130114 -0.35500457 -45.36368018724145 8.358769549651505 -1.5136341599413479 
C 0.29745337 -0.35147094 0.22078408 -22.170366423628444 -7.495345971775018 -47.14806338017298 
C -1.29331054 -0.53242309 0.19225295 63.54611145818844 -10.302510489744591 23.17262237217176 
O 0.84938985 0.83809181 -0.37473634 21.377251361422903 -8.32441868557507 1.8531762293049907 
9
Properties=species:S:1:pos:R:3:forces:R:3 energy=-97074.62256477319
H 0.40108953 0.9001601 1.05639884 17.271470498956454 28.310621323564682 21.466741718342824 
H -0.49547801 -0.62742092 1.31171096 30.07185610384653 10.802450271327608 -20.35655589560574 
H -2.06193885 0.45481362 0.34067901 -9.278583661575588 -6.669434656885065 11.182342273442176 
H -1.17695273 1.73724764 -0.43641446 10.248466695548116 -53.52347608020828 -0.6201132580823979 
H -1.45160896 0.10010626 -1.22006637 12.291546236352714 -12.404088954417551 -8.283088078818647 
H 1.78357126 -0.73732529 0.32962862 2.4371124588992683 -0.11690416787404523 3.2870176768450947 
C 0.01613044 0.07400949 0.50402265 -1.2940070580889385 -71.04844310174869 21.666400779592394 
C -1.15136412 0.53154588 -0.25845865 -40.59717525331143 94.99701933394033 -30.261862581777198 
O 1.04123295 -0.56981814 -0.27140423 -21.150686020627134 9.652256032301006 1.9191185518825404 
9
Properties=species:S:1:pos:R:3:forces:R:3 energy=-97077.29949326123
H 1.04679894 0.69985956 0.97282033 -5.36159262464604 -17.015345011112306 -7.5506242056809505 
H -0.64647384 0.31618772 1.24915078 -41.565597355754605 14.214643217846428 47.415616625442716 
H -0.19112046 0.24440575 -1.46859863 -0.8223443651819319 -18.663069443355337 -37.54661622225346 
H -1.35104101 1.44081806 -0.82807559 -17.383459438592553 1.064432103477028 5.0791359804632705 
H 0.3615216 1.87608805 -1.06443259 -3.323862322582422 -4.952417957607985 3.592186351532418 
H -0.62893772 -1.57765256 0.16610837 9.464153982971107 13.326765638348004 3.1853489377771127 
C 0.11408594 0.23718107 0.54237368 7.7493808571140965 11.359253729555794 -58.77228882258018 
C -0.33930346 1.05012718 -0.79067766 39.34078362464007 0.5622938096737093 43.917731506816075 
O 0.25778874 -1.15545018 0.2477004 11.90253882785332 0.10344391317466613 0.6795110343040435 
9
Properties=species:S:1:pos:R:3:forces:R:3 energy=-97076.3887797938
H -0.36275233 -1.24488531 0.7226851 -2.028678930015307 6.04291559350921 -14.613765679872884 
H -0.77841411 -1.00671926 -1.0471059 8.611985032647418 22.465249286558 22.48862300520653 
H -1.90287153 0.42571236 1.08093936 18.18279887547143 19.628802103664945 -20.159034869703106 
H -0.20286879 1.04337637 1.2715551 -9.383347393575063 5.211534086131526 -1.9461896605542106 
H -1.11788857 1.72138097 -0.12814125 -3.4056946471837306 -20.081776256878335 3.434133007522072 
H 1.23480106 -0.31546396 -1.22854844 15.529453134554979 -2.0248985325189084 -95.53044314441475 
C -0.31239392 -0.48633984 -0.11945614 27.709376849974973 -5.63578053867122 6.1242652889445734 
C -0.97282497 0.79029041 0.4981608 1.992035873855893 -23.693188325038456 11.384658759657063 
O 1.16193281 -0.26754267 -0.32658867 -57.20792879573059 -1.9128574167567614 88.81775329321472 
9
Properties=species:S:1:pos:R:3:forces:R:3 energy=-97066.82128641315
H -1.14093873 -0.56908533 -0.94505051 58.49418414163824 -2.0564982917673493 -6.433011585729334 
H 0.81607763 -0.35335636 -1.29390801 14.933465405664622 -15.16218182583883 -21.406998868196634 
H -0.43748565 1.87910289 -1.02771897 -27.154691268135927 6.689607844528959 -11.923564620829682 
H -0.80029192 1.40312986 0.71980469 -10.577937586763415 -2.378895760439985 6.7579407823363535 
H 0.7905415 1.60905351 -0.07840477 31.28524748972793 8.332366058229042 27.026399660751867 
H -0.44716774 -1.44828976 1.10931389 5.416331309975794 13.290008743368121 -27.408478316876273 
C -0.01438254 -0.27944291 -0.61873122 -119.2163766162904 32.56238031432447 91.67741410891502 
C -0.20971998 1.23409283 -0.17545621 27.48345541000748 -20.56099144403081 -52.47683722153472 
O 0.24498275 -0.8755387 0.69169765 19.336320528354648 -20.715796824194666 -5.812863938836587 
9
Properties=species:S:1:pos:R:3:forces:R:3 energy=-97070.5956906167
H -0.05937095 -1.24309754 0.89300501 -17.16545809739496 -4.223640802104012 -11.23582398846259 
H -0.89016769 -0.81701916 -0.87005847 21.58981452730102 -21.311081361204412 29.814643218102706 
H -1.92467097 0.67790396 0.0547537 -40.336114378271546 -1.3845444949929637 -1.3710901693988173 
H -1.04628179 0.97557233 1.65470278 7.582827547842086 -3.810633561443511 -53.301955222144535 
H -0.59811967 1.73675154 -0.04927033 10.40179217104587 -9.491042475201608 8.527918621194411 
H 0.93180445 0.23004776 -1.21811487 14.037895405037236 -1.3576868341096728 5.836844797860949 
C -0.17305796 -0.55027521 0.02185605 -76.3418118841236 42.60219349598494 7.097580089025813 
C -0.95059467 0.80572499 0.46892287 20.61362292536085 -12.155384334682712 51.67938798340404 
O 1.06942408 -0.29014771 -0.39772169 59.61743178320306 11.131821553574998 -37.04750651540303 
9
Properties=species:S:1:pos:R:3:forces:R:3 energy=-97078.16612985579
H -1.06416895 -0.40873739 -0.99997915 -75.74176864725405 -16.78325374423962 -23.10844455131148 
H 0.57365217 -0.44188173 -1.34666445 14.889007788808447 19.08491816573891 -25.383480175389455 
H -0.83221515 1.16807056 0.87426612 -17.735471602081706 5.481144730917029 18.43668553317969 
H 0.8326231 1.53044572 0.50222643 2.400356749740432 -6.0777218128675194 -3.2722150727210217 
H -0.43622259 2.15806273 -0.51443236 -13.381876671486376 17.341807474332516 -24.73221302677212 
H -0.26295874 -0.81790933 1.21621706 13.10637723938371 -10.895467260039968 -11.927450556399226 
C -0.15236173 -0.16702297 -0.5897278 76.99113902950879 38.70104858570043 46.95885970309084 
C -0.14895577 1.2903282 0.04412658 25.26620484552784 -44.2876898860237 -7.240394446766957 
O 0.30105943 -1.04419903 0.42648785 -25.793968732147086 -2.564786253518072 30.26865259308973 
9
Properties=species:S:1:pos:R:3:forces:R:3 energy=-97080.57479886194
H 0.09298572 1.50212632 -0.38088326 -13.144407706167588 -13.027467963662145 18.300272237447818 
H 0.22680472 0.76607703 1.2855055 -5.93402639008879 9.292537217830331 19.032440841144922 
H -1.06177369 -1.20568662 0.44740329 -15.655658882718154 -25.288711728991345 14.799413079636428 
H -2.19532375 0.31658385 0.2637346 -9.497292937937967 -3.1909531280431036 21.2595408352372 
H -1.40543813 -0.35485558 -1.08510675 5.446508083968376 -8.330193634071763 2.2396566531541873 
H 1.64127615 -0.52962522 0.5738575 -20.468254309085438 8.977568918014326 -40.45484115309414 
C 0.01029129 0.54497928 0.24423148 21.20410725877417 0.2676160937852059 -48.26401703648047 
C -1.29119429 -0.24779772 0.01833556 26.422272456198 38.829713726714154 -34.82384658816678 
O 1.1316964 -0.25434814 -0.26669092 11.626752427057392 -7.530108315754605 47.911383502762924 
9
Properties=species:S:1:pos:R:3:forces:R:3 energy=-97078.48240305754
H -0.01957016 0.60469971 1.28944959 -0.5958727042488408 25.957280006677834 31.418492271623418 
H -1.49754505 0.04713852 0.32681705 23.08590446485867 -1.8839269406841026 12.93760407311256 
H 1.1961857 1.2136892 -0.68678826 -39.33198483247468 4.305098407254611 -22.680511381138064 
H -0.23614112 0.61690487 -1.83450996 5.005839195755024 8.555248238854228 5.643329475453552 
H -0.50993027 2.06306953 -0.658362 9.363553668666064 -9.074382905717735 -10.854136653283543 
H 0.02616593 -1.57870771 -0.28792075 -13.278965191961609 -35.19084515804222 -46.19258925773706 