9
Properties=species:S:1:pos:R:3:forces:R:3 energy=-167305.75812497843
H -1.10296902 0.84497967 1.5777662 3.5965976058255804 -9.405791428523097 0.9929614831804662 
H 1.28354789 -0.04119861 0.51391481 51.930318389243254 -0.7863914568716089 13.91148213819091 
H 0.20322922 -1.24993082 -0.30790379 17.099050932967167 24.542449642156 3.2248237345956863 
H -0.76726422 1.25541295 -1.16905652 -11.953223191024922 10.436320908279287 -6.8642792846856455 
C -0.65944188 -0.16903901 1.28759328 -4.542591088994329 -30.16567589340741 -5.085103031969506 
C 0.36021756 -0.15194524 0.02109228 -67.85010705186976 -63.45021766761716 31.008875293335 
C 0.21233699 0.7269626 -1.15538705 1.2977649249854524 14.59012870895202 -17.982919251507205 
O 1.02456165 0.85941738 -2.05940914 -7.5056768447325535 -3.799061133850238 15.594758671230531 
O -0.93527786 -1.21511877 1.90560055 17.927867509421162 58.03823832088219 -34.80059975237024 
9
Properties=species:S:1:pos:R:3:forces:R:3 energy=-167311.40328338536
H -0.64879252 -1.33966273 0.11685261 -0.41117633296462885 -42.27905370333716 -52.540949822237444 
H -0.12571351 1.62353015 0.53175541 9.523239888257509 -29.44612442564559 -10.216412766838845 
H 1.29925646 0.78473896 0.98579195 16.558157635720526 -6.902945351550473 23.51058848536454 
H 1.92342278 1.0290254 -1.23427908 0.6696627905124529 -4.098459603325054 -3.461998616294929 
C -0.49395858 -0.55656691 0.7987203 29.76142949863881 47.739339842045396 -1.5935086939948035 
C 0.43242032 0.61149935 0.36274736 -27.23612634268664 21.62617061476717 -2.2781163871569152 
C 0.91974515 0.52970038 -1.05672673 -8.570678142311925 15.346962390417346 3.2215852573175603 
O 0.25540762 0.05138561 -1.94791529 1.0114721497170978 -8.408186270124345 -10.78747453733074 
O -1.05399187 -0.62236779 1.84407821 -21.305979959062164 6.422294135110624 54.14628708117158 
9
Properties=species:S:1:pos:R:3:forces:R:3 energy=-167308.25073917053
H -0.79013866 -0.30472433 1.6145722 -13.8103221163519 -6.760747620753534 5.203988706812335 
H 1.52731096 -1.09470172 -0.12848652 -15.134339933486903 9.151600014805874 -21.590223635562076 
H -0.18507286 -1.79135286 -0.1530505 -2.960256386721158 -3.2837187226935947 2.931803796530258 
H 0.54265362 1.02658184 -1.50233627 -25.14422536357457 -30.45045793266246 21.912513194519477 
C 0.21298759 -0.09036065 1.18996576 -15.03565353435099 6.888347894467453 14.730068636476329 
C 0.41677846 -0.870886 -0.15920199 19.083001878927686 22.56834101088184 35.80205290006504 
C -0.19993921 0.11776592 -1.14884498 70.79635296292594 27.6418289257004 -34.165000857240955 
O -1.27739067 0.01432739 -1.65812579 -26.329857864577285 -6.228903323913113 1.3384362152399942 
O 0.8856536 0.75526015 1.7574334 8.535300357209179 -19.526289060011816 -26.163640142661453 
9
Properties=species:S:1:pos:R:3:forces:R:3 energy=-167305.75715973205
H 0.5530384 -0.79633791 2.12234748 38.12304976208622 -5.147429786176128 26.141304017428652 
H 0.05576182 1.6199841 0.62684632 -8.778601190434895 2.1747768262343454 23.331886439470633 
H 1.54159847 0.80067552 0.43719961 -5.425271214845727 -15.486001093946278 -0.05182630883942939 
H -1.06596506 0.87287579 -1.45436664 24.51394487583906 -2.6353437916087916 25.75110367295643 
C -0.06224609 -0.42591326 1.32182296 -9.454050787654506 -0.1618776168854672 4.708340411596779 
C 0.43900261 0.60101684 0.4196208 16.930569478673462 61.39396721244854 -37.89988654187301 
C 0.01467214 0.57298005 -1.06677002 -31.4150782928304 -16.293863026686704 4.981535793405999 
O 0.79959519 0.17608057 -1.87147342 25.385456939074054 -6.55193283520356 -35.9840372986158 
O -1.16185676 -0.89493686 1.25588132 -49.88001838408621 -17.292295888175946 -10.978420185530265 
9
Properties=species:S:1:pos:R:3:forces:R:3 energy=-167307.66555887955
H -1.02771564 0.04204412 1.75321245 18.465181998749312 8.938958584738685 -2.0181808562902077 
H 1.23345635 -0.81651264 -0.16806742 3.6916221895697476 6.064350494746631 -11.471629246853068 
H 0.07155471 -2.00247202 0.29967284 -16.429769976831704 6.966310884993872 13.130866815637043 
H -1.80788114 -1.03179302 -0.88752752 32.580177116591074 28.666909557747694 -17.728598583295906 
C 0.02678969 0.1296559 1.26774975 -35.53441190403786 -32.348326571390835 2.4158720323134797 
C 0.16189639 -0.9139617 0.08118973 49.56771343834076 13.096383139603395 24.44037298064801 
C -0.71033482 -0.48374816 -1.0327414 -41.096640706475824 -26.496845184352335 -1.8688326245825788 
O -0.37666331 0.27092198 -1.91552632 -11.678431694087049 -1.1579080049344024 -1.695970747342927 
O 0.8645887 0.92099489 1.61532817 0.4345595381815309 -3.7298329011527005 -5.203899770233844 
9
Properties=species:S:1:pos:R:3:forces:R:3 energy=-167300.87443512212
H -0.54416371 1.29387168 1.21534262 -60.86593295863067 26.251892502408772 -39.6085123714247 
H 1.24052299 0.62181053 -0.88431536 -1.2240863059002156 -6.068834084123633 1.4210582966583043 
H 1.41249973 -0.99218642 0.0724229 -16.373850213739583 31.601778701683283 -12.516197661979351 
H -0.2886123 -1.92518618 -1.38803694 7.060703426120227 -9.981348646602457 -5.884851577109444 
C 0.21594947 0.58701912 1.00635632 52.48795429384612 -12.946543977982495 33.32831042903787 
C 0.68478005 -0.1596101 -0.30538195 7.010602486903528 -29.49696887465847 22.101880514906046 
C -0.38747935 -0.82604614 -1.23444814 17.193890528628067 18.94326828426548 42.959679409424965 
O -1.34970538 -0.21472922 -1.60351722 -22.64499485497287 11.962887632554299 -18.297126254211324 
O 0.84963757 0.57713772 2.0660206 17.35571478356644 -30.266130351723728 -23.50424197112341 
9
Properties=species:S:1:pos:R:3:forces:R:3 energy=-167308.26791974864
H 0.9120568 -0.31903497 1.34639484 7.651254165512156 -3.0906801003469098 -8.914731074936642 
H -1.51328128 -0.3200187 -0.56273326 0.5694703986474245 7.440928643948878 -9.784462034959722 
H -1.44068719 0.97046863 0.63807983 5.6062950983487765 -2.224822031861858 -0.07542414766575692 
H -0.28635682 2.1621884 -0.90426484 -28.546822646184715 89.44844407503233 -17.916182428828467 
C -0.03648947 -0.71402382 0.87368382 -1.3116686767562409 60.93272788654068 7.467441230907624 
C -0.79516326 0.33238765 -0.01665799 14.656750506989242 -29.064850942011788 3.277842979407944 
C 0.11579493 1.22022186 -0.86317124 25.241722384200788 -78.52896986790499 21.20979445651342 
O 1.22162804 0.93409351 -1.29033882 -9.926874399366087 -4.001772498473625 1.4001119536920608 
O -0.5376576 -1.72066298 1.26235053 -13.940128017212398 -40.91100516492274 3.3356078800484914 
9
Properties=species:S:1:pos:R:3:forces:R:3 energy=-167309.68751192492
H -1.58242187 -0.91217947 0.01505672 32.08916419584648 7.588180344046208 9.985592700128057 
H -0.05100327 1.48569748 1.13357987 -14.143542573716388 -6.664889404813644 -4.453844241870593 
H 1.19705858 0.40128849 0.7698457 22.906941538334525 -9.950543387455205 -1.3751397482727825 
H -0.16327624 2.12570823 -1.171878 -4.082703599079555 -3.575769844963992 -5.744724289859781 
C -0.64929181 -0.69246483 0.71772373 -26.475611872692827 22.95591001845177 2.0261033267022026 
C 0.20238062 0.65843878 0.42424227 -26.171614789199495 -30.248165162868503 30.878228645352497 
C 0.21064556 1.07193415 -0.98293476 27.39293220295602 2.9063323604503832 -35.8070523215973 
O 0.70742518 0.38736012 -1.87895507 -18.82662499702167 12.686072456002748 15.70290199321267 
O -0.49238411 -1.36179489 1.71253445 7.311061080393958 4.302872621150238 -11.212066063794978 
9
Properties=species:S:1:pos:R:3:forces:R:3 energy=-167313.1816028347
H 1.46765659 -0.67718021 0.14604206 -10.163873779550439 3.5201323072809543 6.340368130646638 
H -1.40527803 0.4322344 0.96083222 20.444782167290043 6.215320929645941 -12.36877164618818 
H -0.07535865 1.59880087 0.43608051 1.9745675440191777 7.486578010956834 -0.3174359934138742 
H -1.92057986 0.1716358 -1.30154614 26.251734788209586 -4.0155232793294084 -3.351602234324346 
C 0.62140903 -0.38188687 0.86154725 -7.2536187230780715 5.102598635690292 31.105588486249452 
C -0.46659549 0.57391835 0.32793156 0.5509810768896307 -30.029726253704734 -5.432698012060263 
C -0.74418574 0.29397606 -1.15738023 -95.43294968125167 18.16593057108427 54.31066678046527 
O 0.00311549 0.29843047 -2.06484465 53.20389730816329 -4.924814415286415 -45.40408348193946 
O 0.56103652 -0.75933087 2.02553861 10.424479299308446 -1.5204976921587738 -24.882033215256275 
9
Properties=species:S:1:pos:R:3:forces:R:3 energy=-167303.24700541835
H -0.08543515 1.55310103 0.30146637 -1.7163312947121754 5.953690860503714 6.055175797309481 
H 1.66485754 0.23064176 -0.81340217 2.6045243026089797 -0.4458615985761907 -4.309967388471741 
H 1.1281264 -1.30539171 -0.08552932 11.735457828215596 17.430910067770217 20.59160578598957 
H -0.04494993 -1.43292673 -2.10310972 10.578436817424011 -26.03124559445633 -27.031242553905976 
C 0.38796363 0.63453725 0.77594004 -33.171161866486045 39.58711541646077 -49.6331102832369 
C 0.79345969 -0.24316008 -0.31174072 37.858916424714735 -89.95409714241761 -51.11817919998792 
C -0.27556158 -0.71668305 -1.33476443 -3.431283479547214 84.13258026740436 69.09733465549338 
O -1.35963811 -0.2215155 -1.12199593 -36.08787016109373 -15.541839035386182 -25.527579963145058 
O 0.51177101 0.52590631 1.9456576 11.629309057233751 -15.131252055481689 61.87596196413412 
9
Properties=species:S:1:pos:R:3:forces:R:3 energy=-167309.14455616727
H 1.42486022 0.26909237 -0.64688681 -4.826544239337841 7.533477233347851 4.799706737412342 
H -0.62323365 -1.56133962 0.05919473 2.3072271080286497 -13.723657570985905 -23.97162503587342 
H -0.66396795 -0.59412562 1.37178573 -0.6106587068782618 1.6974032191671584 14.992870296812544 
H -2.13683334 0.77134998 0.41864847 -6.99733789267683 12.572219405681473 5.025916331894147 
C 1.07038959 -0.22609814 0.32070315 11.272159916970946 4.152153580312799 -74.46123251625392 
C -0.37550219 -0.53028413 0.31167472 -26.47093262284314 19.32723476749599 47.134714592651974 
C -1.31808814 0.5035786 -0.29304093 -2.190415434196235 -40.90257872056596 17.666820864233838 
O -1.29617774 0.84777646 -1.43393925 4.762767225991291 21.63795174686463 -36.636725060846906 
O 1.88985837 -0.58770488 1.10342764 22.753733459120376 -12.294203661318031 45.449554975790434 
9
Properties=species:S:1:pos:R:3:forces:R:3 energy=-167300.28053651884
H -0.90853353 1.28279075 1.58889744 -5.476785652749914 -3.228683582102203 0.5746014463158426 
H -0.0281598 1.7219251 -0.53108639 19.48217770290124 -20.032484047615384 -1.5503614093950673 
H 1.22046944 0.299642 -0.38828126 56.6132419125283 -4.789838334662961 -12.028380528955207 
H -1.63146235 -0.42808793 -0.60783692 -14.838469281625569 7.783506415191687 -2.2191609221856323 
C -0.09276873 0.60366547 1.21535988 43.145052884526756 -26.75331337447893 40.35048534353467 
C 0.24518955 0.63626969 -0.24172042 -37.8409737664594 92.95723637564514 39.181979655907256 
C -0.61775492 -0.18564439 -0.98581771 10.583931912153721 -120.16055935072109 -114.6882679597376 
O -0.15065088 -0.87439037 -1.96924605 -43.0569143635999 51.076058836414504 64.17661606610176 
O 0.58477864 -0.0982157 1.97450034 -28.61126134767524 23.148077062329243 -13.797510505764983 
9
Properties=species:S:1:pos:R:3:forces:R:3 energy=-167306.05986307783
H -0.99120804 0.0808782 1.8587031 18.783582064674032 -18.050910672853192 -11.014888925995837 
H 1.19385438 -1.26357436 -0.29725423 -10.556168283990866 34.230308765558604 21.509889002942558 
H -0.14774012 -1.90092512 0.53784886 -16.70855531905435 -4.190862336735301 -3.061761482484717 
H -1.75683424 -0.90706088 -0.97673041 13.648847678622257 5.140104969571594 -6.956629841969844 
C 0.03475038 0.03119375 1.29427697 -10.944202133411045 37.67765419118133 -1.0534051535651678 
C 0.19237844 -0.91818 0.15958136 10.973478869229295 -57.60778290934277 -28.748891295800867 
C -0.68266848 -0.47127171 -1.03473406 -31.383173777573 -15.827168923964738 29.010258112670762 
O -0.35828122 0.33124361 -1.86136804 10.086476425663225 8.004581404541932 -14.264732298852662 
O 0.80737306 0.93985162 1.47601124 16.0997132900194 10.624074326221503 14.580161883055776 
9
Properties=species:S:1:pos:R:3:forces:R:3 energy=-167306.2002954844
H 0.78888541 -1.3386985 -0.08910306 0.011109957385118725 5.316928674927766 -16.754240260693706 
H -1.27960529 0.95974326 1.0275818 38.747146193063976 -23.643792949344448 -15.780089456774647 
H 0.60049233 0.81344712 0.97371366 22.177259601372032 27.231696115256735 12.053010032092033 
H -1.16295736 1.35478845 -1.45251218 -50.75618005164474 16.14249652755785 -25.97481237085106 
C -0.0049827 -0.94382456 0.58834109 -8.48384165289418 -25.333908112359516 51.352723930605926 
C -0.31658227 0.55993994 0.46944868 -57.51981988993081 1.2361638932593186 -24.921119062771584 
C -0.26607033 1.03949582 -1.00236589 123.40971138990776 -19.860379910024474 21.689118739202183 
O 0.83441365 1.03816442 -1.61895378 -64.10004522948398 -0.9956272088931084 26.687341406375218 
O -0.32702793 -1.64300414 1.5483867 -3.4853403177752025 19.906421783798837 -28.351932957184363 
9
Properties=species:S:1:pos:R:3:forces:R:3 energy=-167297.4557036788
H -0.59393293 1.76772009 1.11979988 -41.40507631814639 38.93894088913283 20.373705239580936 
H -0.21236904 1.61527594 -1.34828807 -6.395310777196399 -13.686039769926225 27.28487070262609 
H 1.15935683 0.87061861 -1.09781324 70.50080129692613 -5.076897150327386 -4.097593953961073 
H -0.58228233 -0.57513309 -2.22316386 6.25899590461139 22.49337221849796 -21.206322372489126 
C 0.05122226 0.99417022 0.79952884 35.891085530061 -1.5211392213449573 -21.6910196103398 
C 0.22851592 0.81365985 -0.63101423 -78.98608016492874 21.083717962844318 -66.34847221509844 
C -0.34690827 -0.47181453 -1.14928043 -29.719278303718177 -95.61621832399584 13.593536241727023 
O -0.63259283 -1.55093888 -0.5723061 21.184114315929353 66.15214412516862 -0.9085547410870995 
O 0.69735875 0.31630468 1.53217403 22.67074851646182 -32.767880730049335 52.99985070904149 
9
Properties=species:S:1:pos:R:3:forces:R:3 energy=-167309.6107168223
H 0.96804453 0.01612127 1.17085357 -0.8933003391442916 2.7711452036806437 18.140520797698816 
H -1.76816721 0.36265817 -0.26736624 5.665012213289703 9.740673221173802 -4.618228684448465 
H -0.30269276 1.63772123 -0.08522114 -22.337932424074207 -10.836286489069842 7.415581719078891 
H -0.26712966 -0.81166491 -1.81716084 -4.416078213180096 -2.4166096130044337 -14.132989952223147 
C -0.15398082 -0.1455037 1.19443801 16.36340550196158 -8.87237236133286 -49.84181834489269 
C -0.67696407 0.56603515 -0.17320864 16.62563322491126 14.6218185906 31.270948859548636 
C 0.16727926 0.10206156 -1.34066782 17.15069343954438 -29.790498715773918 8.987329411048472 
O 1.30809281 0.46055566 -1.61196675 -23.16930681652561 6.81580884940795 7.670162082099382 
O -0.72367591 -0.92871985 1.91469586 -4.988127772603765 17.966321314318655 -4.891505887909897 
9
Properties=species:S:1:pos:R:3:forces:R:3 energy=-167291.0321127079
H -0.09262117 0.38781185 1.9225955 -27.93469114956664 -23.170892259264846 26.672041943232642 
H 1.14418549 1.18662834 0.70941029 0.415273344680456 -7.688314630679956 -15.092463849049066 
H 2.08893785 -0.17183285 -0.01520909 -28.531775762925047 -9.353055594940965 9.270259197828814 
H 0.16821047 -0.47706422 -1.78115734 3.175237441713188 -27.242236878539508 -17.93795884652729 
C -0.05166301 -0.50117821 1.21359061 137.67460258878066 170.02802819067168 -10.652811513463574 
C 1.01770738 0.18230377 0.20891102 17.830460611194475 7.644510401220432 -3.641357607048624 
C 0.20282358 0.36553144 -1.09258044 52.68360172249521 -38.26686851025379 47.65842059964993 
O -0.43623168 1.33317117 -1.26203805 -52.3218515965718 77.26480636809454 -23.85879534911532 
O -0.64977765 -1.42645661 0.96172179 -102.99085601397948 -149.21597708630756 -12.417334575507505 
9
Properties=species:S:1:pos:R:3:forces:R:3 energy=-167302.4558163411
H 1.17425794 -1.6634321 0.09649718 -1.094122690840525 -58.097989471775705 -13.07912114262878 
H -0.76404752 -0.84500354 1.13308523 34.685107897362634 34.47924106293438 0.926492656058248 
H -0.04386377 0.9046268 1.16650042 8.407326549865598 45.47115707779542 36.10466968786019 
H -0.76612702 0.36662732 -1.56742163 14.06531158763345 3.100788038947695 -5.646382964648416 
C 1.23157526 -0.61392388 0.19303616 43.059382057197766 82.36954778241595 18.530931032496277 
C -0.07804847 -0.0038024 0.65461785 -51.79189512683748 -83.80590198475369 -47.930954293315175 
C -1.14410083 0.28073281 -0.51752796 79.19408622052495 -8.28753372192216 -15.511663447214646 
O -2.3004565 0.34641773 -0.33991431 -74.70336175828564 5.852790533473896 23.590773704532193 
O 2.3184666 -0.0154493 0.03988388 -51.82183355079971 -21.082100502936825 3.0152547668601066 
9
Properties=species:S:1:pos:R:3:forces:R:3 energy=-167304.19695506338
H 0.93521735 -1.49088428 -0.04716803 -25.20732527310354 19.656766135584665 7.830200490541651 
H -1.59305544 -0.07061494 -0.23436733 -18.498183398474776 -11.695125682780366 -15.584018690011934 
H -0.92922237 0.55069757 1.0990363 -6.276638550141949 27.60982954475927 13.574069803426871 
H -0.43072595 2.27084178 -0.36620238 -2.325899046227612 7.549624558538711 -19.3107198377807 
C 0.066225 -0.99182695 0.58397193 61.664198041641384 -93.95670327308697 28.982704374833144 
C -0.59965991 0.2011826 0.1198791 -32.19329232776501 17.71488219125047 11.01628700900972 
C -0.0896243 1.27681124 -0.78762289 47.077183298757596 -9.966685969361881 12.03718999351002 
O 0.76859413 1.10478798 -1.64419763 -24.81665890096002 10.239589639193648 7.990190280321013 
O -0.17384723 -1.54908498 1.6786524 0.5766161562739296 32.84782285590245 -46.53590223802873 
9
Properties=species:S:1:pos:R:3:forces:R:3 energy=-167303.19364627663
H -0.69118268 0.00013592 2.45544845 -33.56541297565328 -7.090958464301882 31.211539225116525 
H -0.02921321 -1.71423309 0.43046555 -6.955350341060617 31.540697059575535 -3.7533750063898403 
H -1.48883294 -0.9105786 0.04082815 -27.248684187569594 1.3461203356216325 -10.143734980716896 
H 1.10319192 0.52488012 -1.07222108 8.653287179698724 -15.312146684490664 23.572000971544274 
C -0.18942915 0.11784548 1.51881166 59.62606930370612 -3.0237120425640946 -71.95587842776783 
C -0.46301888 -0.6357896 0.22461164 10.423578075313069 -60.2551568554688 34.53138635763533 
C 0.1886107 -0.12900469 -1.02316452 -29.6988252623073 44.96291061978133 -54.25298488729798 
O -0.42608855 -0.13699292 -2.0969332 8.665540268572716 -18.344976505081675 20.519780605200094 
O 0.84386912 0.75498735 1.43940359 10.099797939300158 26.17722135110758 30.271266142676332 
9
Properties=species:S:1:pos:R:3:forces:R:3 energy=-167297.6464813606
H -0.86879169 1.22703159 1.26465079 -51.80773532437729 30.09897583118111 19.69901338201007 
H -0.85594256 1.36957478 -0.96428571 16.80420483049005 7.051451650315053 -20.23706070874499 
H 1.04460642 1.13721438 -0.9120682 70.07842251253476 41.273120523728494 -39.180511609451635 
H 0.43716176 -0.83812991 -2.13331795 11.529828157996654 -17.73999195191115 -9.968723209919851 
C 0.05407845 0.89433971 0.87141825 -26.800555299152403 -15.409536981222695 -80.4678999320122 
C 0.09008346 0.82860173 -0.73573269 -71.64032907563902 -49.67121308510461 80.17641326055997 
C -0.07712626 -0.65522378 -1.17139158 -44.19190519098869 24.902160155879354 17.89330556919844 
O -0.88553873 -1.40478864 -0.63754886 25.167685647159495 5.148967796073503 -13.633574303542705 
O 0.85042232 0.42087955 1.58798135 70.8603849277975 -25.653933938939055 45.71903873772395 
9
Properties=species:S:1:pos:R:3:forces:R:3 energy=-167311.5879316682
H -0.46325898 0.17051388 1.61471675 -24.214686333247734 2.07909174016725 -2.176352782405209 
H 0.19062823 1.66357499 -0.27116206 8.173793324600306 0.21173546278762506 1.2099963802251192 
H 1.45987322 0.57148247 -0.88388935 7.5591846478159885 -5.782248411056782 -1.8532924397675525 
H -0.30078679 0.32907289 -2.41189082 -22.393484582641893 1.7898189966089177 10.399036322933691 
C 0.48010506 0.07912898 1.04843403 -14.676488498309054 11.405863611611453 -12.026247236892466 
C 0.49243854 0.58309762 -0.36805142 -51.47459787448605 16.653615044146683 -7.567385786173923 
C -0.69625135 0.14908645 -1.3322271 46.458983955844324 -25.865447653190973 0.7833154370768606 
O -1.69776409 -0.46417184 -1.03337966 6.463723165013911 17.84426356817631 -3.8659841304332847 
O 1.4344074 -0.31710938 1.64570347 44.10357338123125 -18.336691173429436 15.096915421257812 
9
Properties=species:S:1:pos:R:3:forces:R:3 energy=-167310.0169790838
H -0.76027755 -0.8589398 1.07916505 -29.78646099511042 -53.31373279677886 -7.6640717052043055 
H -0.32712682 1.38355758 -0.44030692 -8.50372668602376 4.675246517829685 -0.6927222665836473 
H 1.37865039 1.12125005 0.11283641 -38.62107444267905 -23.146945789050832 -16.381797586393557 
H 1.39927751 -0.42740532 -1.94812495 15.299115697010137 0.36205843939551763 6.844682406070374 
C -0.15469027 0.00150124 1.16830901 4.592610206558818 27.998363810661093 -33.37064305457863 
C 0.35769547 0.56350352 -0.17262418 66.64669197845299 31.546489795387924 32.715326327087325 
C 0.44616371 -0.32040429 -1.37761855 -13.41500851152696 4.894063703907302 -12.78473751035982 
O -0.55361935 -0.81138568 -1.85991222 -10.793557799299537 -12.032868861616397 1.341448200698229 
O -0.04030985 0.55105117 2.2220008 14.58141173843884 19.017323994443515 29.992516375085074 
9
Properties=species:S:1:pos:R:3:forces:R:3 energy=-167301.07303496683
H 1.3056601 0.54010412 1.12603808 -14.067670185695036 -16.22647163079027 -1.913687491489346 
H -1.74996157 0.55682397 0.09852134 9.084163557709672 14.028547577727288 6.02966167167193 
H -0.3572162 1.78790278 -0.16644807 4.886826638060213 79.5013063656228 7.368386041426236 
H -0.90355366 0.71085831 -2.30641112 28.737301080891896 -14.068046090966792 26.32237651959461 
C 0.2361964 0.10776705 1.06498845 -47.602364467137456 -23.12664216109182 61.11243669450312 
C -0.66371805 0.82139624 0.02346172 15.217060438052076 -107.27970867289638 -26.797850441345226 
C -0.19185153 0.31531877 -1.41314516 23.125158698962586 -38.91198954838687 -6.653192466010482 
O 0.80215246 -0.42806119 -1.57293799 -60.72666776328185 48.05140406611841 -0.24703972698548554 
O -0.22987328 -0.73264331 1.89532534 41.3461920024379 58.03160009466362 -65.22109080136536 
9
Properties=species:S:1:pos:R:3:forces:R:3 energy=-167306.21587788188
H -1.03746525 -1.87607042 0.1246819 -4.837191726514806 2.9166727199762916 4.0224342443886965 
H 1.28842472 0.08510432 0.69260739 -23.877270441020553 1.3654278739015455 -5.38418963050908 
H 1.00897449 -0.78649104 -0.7171815 14.884311937464112 -30.87207304829986 -39.99696600149535 
H -0.77092763 1.67921323 -0.35125447 -20.939429629542314 27.227539812488576 8.249162924497922 
C -0.490125 -1.11229423 0.7617882 -2.5040852599662693 -9.498420653753238 22.86492789865529 
C 0.44231044 -0.25537613 -0.00679522 18.3043680633426 73.9765340925822 18.044742031769044 
C 0.01433186 1.12151384 -0.83981302 49.775598540190245 -72.65851890158483 -22.905159249301562 
O 0.57419145 1.34049438 -1.90729482 -25.115266427796794 7.055105164959469 36.770797545832885 
O -0.57996229 -1.09906956 1.98678953 -5.691035056156223 0.48773293972984016 -21.665749763837837 
9
Properties=species:S:1:pos:R:3:forces:R:3 energy=-167303.054509113
H 0.10565556 2.1418527 0.90962451 -4.492216225115875 -29.644686602427097 -21.11266859787477 
H -0.04837166 -1.00141166 1.17200729 -4.601519280081542 16.792519749897355 -21.31990979889597 
H -1.45557081 -0.00542244 1.19158405 -25.70538671414882 25.305123492275587 11.562784496522346 
H -1.42077868 0.46539928 -1.4010628 23.41602044272329 -9.17747700168367 17.052984156950824 
C 0.50409506 1.0431381 0.68941209 31.77122897177201 55.80230040252999 62.24644210460224 
C -0.52658698 -0.0880198 0.66077701 65.78021846884478 -40.60410044822328 -22.012377113954614 
C -0.87127582 -0.4075863 -0.81635129 -49.18608658003509 38.11719062029522 3.7134590841419506 
O -0.89173128 -1.48382478 -1.32726846 15.41205447930452 -34.0213991143249 -9.40066749578096 
O 1.7401777 0.97201785 0.8085737 -52.394313563263275 -22.56947228416025 -20.730046835711043 
9
Properties=species:S:1:pos:R:3:forces:R:3 energy=-167298.49657508163
H 1.85147033 1.47224642 0.22685073 16.105096917570734 -5.549558304555587 -10.848685433932557 
H -0.76123391 1.45855363 -1.23360731 28.732655034031517 -11.7034821636954 34.790523830937715 
H 0.42056734 0.50920973 -1.96187446 11.42293587721862 -10.142188670072196 35.36221882986846 
H -1.93562483 -0.3980819 -0.57536044 -40.63222575180533 9.092640992371452 12.193057869331577 
C 0.90554551 0.90786371 0.34152031 -46.56215038689411 37.88313444794841 49.39879560190193 
C 0.01070719 0.63403206 -0.88594061 -28.75590068400702 4.649514201119571 -24.762929349340883 
C -0.87667767 -0.58836535 -0.51903646 28.669225466251607 2.416491030899779 -44.252186403890015 
O -0.46055537 -1.71700102 -0.4923704 9.841466824309432 -14.890809050978156 14.312620495996502 
O 0.45751019 0.80959921 1.51396931 21.178894331682443 -11.755742483037867 -66.19341662669378 
9
Properties=species:S:1:pos:R:3:forces:R:3 energy=-167303.84503719184
H 0.86469625 -0.66981444 1.33033633 15.179061988436455 -22.328755354994964 8.264789674249345 
H -1.35136981 0.73870224 0.72452353 -17.657486080955405 -1.6175441007873077 24.306117879220857 
H -0.235566 1.55379704 -0.36532184 -19.219412803017462 -6.876816970610809 -10.83054118609931 
H -1.17692949 0.11530993 -1.92424085 -10.809652948364349 -12.167431090694604 -31.558053922233878 
C 0.85068689 0.28384347 0.79772554 -29.21392643487871 59.73746770446103 -5.192225362030568 
C -0.56190116 0.54811484 0.0177186 85.06721002748402 36.460207297320736 13.09469808789625 
C -0.97645677 -0.45309423 -0.99637618 14.781211912392948 87.64181725090963 7.333709076562 
O -1.03321265 -1.59730917 -0.75022939 -11.367235491020118 -94.28347523560032 1.071402359588644 
O 1.66899071 1.20345358 0.90083914 -26.75977017007739 -46.565469500003395 -6.489897792974389 
9
Properties=species:S:1:pos:R:3:forces:R:3 energy=-167300.6326846418
H 1.24661557 -0.30605985 2.09484982 -22.481809277473058 -10.429088585716382 18.965584250540484 
H -1.47667318 -0.26520771 1.58163494 10.194184551321282 2.479650231481078 -16.45051828768317 
H -0.89553909 1.15617753 0.44064714 -6.531658852770709 -5.711339869936284 21.336106928570786 
H -0.48445969 -1.70731691 -0.62655108 4.58011521019133 14.93421484456604 24.12955742613702 
C 0.729814 0.06695663 1.18452019 60.5861610132973 30.44478852223891 -35.07357694310689 
C -0.73075731 0.10383548 0.81589757 3.750533779162309 20.442788802110794 -15.822652131598433 
C -0.70268035 -0.56114036 -0.5740648 -4.140560993761734 -98.3083878459763 28.913376533167696 
O -0.93306104 -0.13482595 -1.64889494 -15.554909154961248 58.97016915225992 -45.30976683336009 
O 1.56260099 0.49861701 0.35823311 -30.402055089184422 -12.822795251027769 19.311889057332596 
9
Properties=species:S:1:pos:R:3:forces:R:3 energy=-167301.27628206447
H -0.45968135 0.51028223 2.0904855 -30.613306736985056 16.049384673161764 22.682936385178255 
H 0.11402179 -1.28974327 -0.47482332 -8.299374145071951 0.7775013564856302 8.753224620038743 
H -1.58697839 -1.07290986 0.26835236 -5.531806563488746 7.020332148590463 -12.709842238880823 
H -1.59486538 1.24271984 -0.86284142 -0.5060586181832103 29.149964433448897 6.299786962791633 
C 0.03987965 -0.18792936 1.43674343 7.550373997440129 -12.306601420359701 -75.42120090045624 
C -0.61248063 -0.59966194 0.02113032 29.11038054109404 34.92524258839406 27.050829945952874 
C -0.66197298 0.66194047 -0.97398542 -11.60248578516081 -87.64910530706172 -36.740391908378314 
O -0.04803796 0.57652817 -2.04230585 -8.765254774555984 23.742890828383512 41.379715163423846 
O 1.19695715 -0.44374756 1.61471856 28.657532084911583 -11.709609301042919 18.704940784508985 
9
Properties=species:S:1:pos:R:3:forces:R:3 energy=-167299.55376940907
H 1.91469518 0.71165774 1.13350208 43.99108402511351 1.2818464632565771 21.284182196584492 
H 1.2001429 1.21729553 -1.09009717 -7.411163349859449 22.299569927397297 -19.74623989100993 
H 1.70976139 -0.42174159 -1.07661575 -17.854950187447805 15.166724706268157 17.90868922563532 
H -0.79412736 -0.3079867 -2.1862128 29.98638093699023 19.19709209345827 -11.127592915723005 
C 0.92936456 0.49580524 0.77209976 -42.575702253805034 23.577052569202568 41.76682288660667 
C 0.87489698 0.27897879 -0.65825961 6.43427448514391 -67.09989380930732 -34.002052443950454 
C -0.40737145 -0.3706251 -1.12852793 -90.19510104027616 -37.856966934914205 -12.63492918008613 
O -1.25725873 -1.07412543 -0.52494104 63.62265264928004 34.14236234764129 5.888848979857362 
O -0.04539595 0.69522282 1.4894819 14.00252710650286 -10.707788548823684 -9.337727672093271 
9
Properties=species:S:1:pos:R:3:forces:R:3 energy=-167308.98678147275
H -0.74040032 1.10610388 0.41301512 7.881852483687239 6.366776365353287 2.475542547375832 
H 1.04786334 0.36538413 -1.66311378 -24.231475187624774 5.523376561668829 12.067424872733882 
H 1.68172396 -0.6541791 -0.56747409 -2.584214745544733 -8.371738874437613 18.524054456247335 
H -0.32318812 -1.93793538 -1.47633997 4.75286087696842 5.655242233687185 12.714131353606193 
C 0.34332219 0.79171051 0.47601127 30.140280349874516 17.78087550413302 43.60093704258838 
C 0.72317033 -0.10595358 -0.67532932 19.947859114449447 3.6972311231199253 -8.715353053275106 
C -0.47478273 -0.9924753 -0.83054587 9.40869787590819 -29.428593247293406 -56.530039964618226 
O -1.59384097 -0.70889262 -0.49369621 -22.40142721201168 3.46542445329841 15.08804429400858 
O 1.04459118 1.00979082 1.47432247 -22.914433555706623 -4.68859530535069 -39.22474154866687 
9
Properties=species:S:1:pos:R:3:forces:R:3 energy=-167299.99757240101
H 0.11926807 0.77703516 1.65421223 15.209556562469512 8.796329215080803 9.089084715052852 
H -0.96663638 -1.21644929 -0.34150814 16.911577368791935 2.576223497512039 -12.881019064413328 
H -1.67449629 0.27503785 -0.10778754 18.394218909860673 15.382905812159299 -6.060289057662201 
H 1.46308596 0.68336137 -0.4700247 -4.771401189031215 -23.53782798062482 8.514281679159096 
C -0.13241163 -0.22816018 1.24663846 -19.085643888219398 -10.286970304929566 46.99386514038496 
C -0.63123809 -0.16476888 -0.12120079 -13.685361480287598 -20.828020556397973 -48.129429905160286 