9
Properties=species:S:1:pos:R:3:forces:R:3 energy=-167306.89389781174
H 1.03397753 2.0429616 0.05029682 -7.89139122818568 7.883854149613813 -24.1128634374437 
H 0.18150121 0.70797039 -1.65310508 -14.582020064635717 -6.4466520852277895 -6.547349636858648 
H 1.46415963 -0.31935466 -1.0904077 11.544251299385829 -8.32548711033801 -0.42947829499706797 
H -0.00285198 -1.78303996 0.32475368 -12.937477190260582 9.741595789948017 -11.686973163085343 
C 0.75048553 0.98134542 0.29765216 34.98988999438878 67.97825754654929 -30.651687020977658 
C 0.4768091 0.068888 -0.80641789 17.3658499960513 5.185775681358387 -29.71444608295349 
C -0.46275293 -0.96926002 -0.36631579 -4.159457052138494 -17.036702833981703 7.085206046405072 
O -1.63270227 -0.85188689 -0.63462237 -19.796283910816403 -16.77664634936825 2.9494535569870957 
O 0.89002989 0.75029122 1.44075186 -4.533359472146945 -42.203993602732695 93.10813803292375 
9
Properties=species:S:1:pos:R:3:forces:R:3 energy=-167302.9101510567
H 2.39006935 -0.16606151 0.98919504 -44.68175719292872 10.780846983501576 -23.625094923082465 
H 0.34731949 0.06160544 1.94303376 -16.966167826490867 -2.126174764820483 11.587020307071716 
H 0.32335269 1.45153695 1.01255201 -1.1638299952408688 25.810998308196577 2.4685379024538663 
H -1.95787016 0.70093976 1.29063472 -3.585485276798369 -8.013617360916637 1.6004908083168847 
C 1.39371837 -0.09891213 0.2486199 54.8931397068881 -51.70002838454028 -65.84422790311645 
C 0.14080458 0.383957 0.9059845 20.54104000492263 -13.51621359456574 9.344116875892079 
C -1.3021075 0.26529108 0.47817114 -28.375834366198607 2.435803312463878 -63.51588369389086 
O -1.79159113 -0.01549857 -0.63713692 34.49879643781303 7.0688452734258345 62.254797399696216 
O 1.54753874 -0.52661163 -0.91840786 -15.159901491966314 29.259539041434223 65.73024559830111 
9
Properties=species:S:1:pos:R:3:forces:R:3 energy=-167304.50768429364
H 1.69469389 0.26527298 -0.12589349 15.932414099309113 -8.25549995217068 -9.566496268393529 
H -0.83117383 -0.24332037 1.37105497 -4.1878384930666 22.503955671338407 -10.549194470416111 
H -0.20629393 1.43439977 0.92325147 -3.899354320504223 5.911150716279812 -6.647769706364613 
H -1.8021248 -0.57085778 -0.62421614 -24.861460405919697 -20.533991484621936 -10.755367246674375 
C 0.96143134 -0.24490392 0.52989169 13.571687488944354 -28.408119530011952 49.93600218151485 
C -0.36873504 0.40211821 0.55653426 -10.627265370657765 -9.6448707388231 71.52569931253225 
C -1.05649026 0.21474155 -0.67944746 18.116432028959213 56.8451908808754 -106.30235496633058 
O -0.73302591 0.8157388 -1.74816506 -24.571795155594955 -36.281428173058806 57.96139000213953 
O 1.15322215 -1.15070208 1.34536399 20.527180128530556 17.86361261019285 -35.60190765218639 
9
Properties=species:S:1:pos:R:3:forces:R:3 energy=-167303.46157496312
H 0.76057344 -1.75179121 0.53499032 5.272678576754739 14.709985571231975 9.690125227422552 
H 0.59310416 1.27933448 -0.57532209 1.9531860047288503 26.487377589116686 19.363405866878878 
H 1.17636355 -0.07969089 -1.45009631 -10.553431409015431 -9.665836054926086 -1.8925241432715836 
H -0.92091414 -1.31663971 -0.82278279 -18.968232188937424 -32.640994320605444 -5.352416741387842 
C 0.91220774 -0.613402 0.59178321 38.37740719074996 75.15424768063608 25.215930776438345 
C 0.47889383 0.21462776 -0.62087388 21.482503651693555 -37.632601292159784 -20.8368786396157 
C -0.89874078 -0.22929945 -0.77658633 -38.38302323922642 42.617618656158456 -16.194744988689852 
O -1.8839145 0.50648481 -0.73789772 14.048560679529897 -20.87028677596013 -2.0358472182416967 
O 1.41282854 0.08278692 1.48844469 -13.229649266277725 -58.15951105349173 -7.957052511175197 
9
Properties=species:S:1:pos:R:3:forces:R:3 energy=-167308.7118897968
H -1.42793943 1.0755791 0.94800183 9.34175946365154 -9.638653479076043 4.892065595443867 
H 0.07365301 1.68515724 -0.51496743 3.547191557742158 41.88938104923066 -30.337086325686087 
H 1.57847279 0.80322741 0.07363765 -12.782238985414741 7.492190501970151 5.850512571243475 
H 1.1332731 -0.0189296 -2.20027572 8.178300630398239 -0.9301853027972021 1.1853419748463163 
C -0.3866114 0.58762621 1.02436727 7.6644523537602485 -28.621340826570904 34.8580515962545 
C 0.47687063 0.77490101 -0.14476666 28.006601709471468 -37.39257451084359 -38.013630496657996 
C 0.38977855 -0.24412203 -1.38848165 -20.74368970685159 29.918004123804113 25.72923357539492 
O -0.48049515 -1.06048648 -1.52360028 -1.8505425207606052 -12.56100746768635 -1.7179819576089719 
O 0.03451474 -0.00238131 2.01230905 -21.361835687817766 9.844187097790215 -2.44650653323003 
9
Properties=species:S:1:pos:R:3:forces:R:3 energy=-167306.87785790843
H 0.87473924 0.90533619 0.91117784 1.1233069326171456 20.070691201735194 13.502250551742625 
H -0.31839057 0.96326503 -1.27637436 -4.179667000234831 16.46658972032705 4.508709810052328 
H 0.13388947 -0.51497523 -1.81670462 4.124692336516814 -41.357312632212434 -6.539114109690363 
H -1.24193801 -1.40431172 0.47871805 -4.243351519539751 14.74067343409562 -3.2620193833627926 
C 1.14732461 0.22187904 0.09741109 -4.989503325017762 -51.42940742022311 -31.782127853010845 
C -0.0932912 -0.03897194 -0.87857056 10.609852774410239 62.60672774153315 37.72295136933845 
C -1.2376618 -0.30805631 0.10505512 -2.316952026431399 -37.291185625542596 -7.828109888036584 
O -2.00635102 0.52088482 0.54848514 10.3644115341955 -1.1477846506600127 -5.325167759559189 
O 2.17885714 -0.42369481 0.06636115 -10.49278852069491 17.34100823094714 -0.9973703658315358 
9
Properties=species:S:1:pos:R:3:forces:R:3 energy=-167309.32023189167
H 0.41803767 0.47133377 2.35386909 3.0169564200619043 1.7499659228764948 4.413946106938401 
H -1.24992397 1.30537541 0.66629196 36.060086373973085 -14.205912017480685 -1.7412679255000567 
H 0.53215411 1.48959991 0.12164971 4.95291125916335 18.478665969869624 -3.837060769286905 
H -1.49865606 -0.70382947 -1.02044928 26.593726763855397 11.79403145880989 2.9143010778831933 
C 0.31942907 -0.10024953 1.38386087 10.230756458217902 -31.74034544843569 47.151639816449375 
C -0.25762291 0.76978699 0.3426928 -47.164120582964294 -22.774007441553227 -33.65917347416182 
C -0.61242604 0.08165904 -1.027871 -37.60664011198769 2.1742491358686307 53.30848672446892 
O -0.17426875 0.54671197 -2.02702996 18.55830333971377 4.245534616086449 -49.05007409181696 
O 0.70081388 -1.27201775 1.36888689 -14.641979920033426 30.277820175600606 -19.500798650795197 
9
Properties=species:S:1:pos:R:3:forces:R:3 energy=-167306.04961902145
H 1.06436914 -1.43129309 1.75079082 -3.5460306389375864 -28.85075332369944 13.089137773008979 
H -1.25284628 -1.09041183 0.72465638 3.2597758099427216 1.954696740742154 -8.057261504534877 
H -0.73856171 0.37573425 1.52058337 -4.295069918663945 14.63634727006232 12.530601830231785 
H -0.04940068 1.55954103 -0.74496526 -27.468787989482717 -18.43695352873621 -8.477612534936657 
C 0.96097601 -0.68848291 0.96381916 28.05776395852483 88.68509193527413 -33.093948314861045 
C -0.54467267 -0.23468249 0.63541162 28.440219705742038 -4.269706392299305 -24.88011099933982 
C -0.81203775 0.65642812 -0.69600133 30.444546614745413 -33.41614182231367 39.48706057983715 
O -1.62696587 0.27797769 -1.50628721 8.30661121091904 20.86511066709194 0.3985710552398116 
O 1.98545733 -0.04074683 0.62342172 -63.19902875278979 -41.16769154612191 9.003562115354683 
9
Properties=species:S:1:pos:R:3:forces:R:3 energy=-167297.0093437269
H 0.99534275 -0.77643235 1.26368975 17.288259353333494 -53.142870213823684 40.644803755646066 
H -0.93670753 1.27500196 0.74777795 -29.48705659653037 42.81672986808451 29.06313861642057 
H 0.0730856 0.95743973 -0.755661 -20.4410693615933 2.944590504875198 24.58944135858865 
H -2.16647768 -0.67597001 0.30578773 -54.80943852831743 -14.889439427669389 37.47632193643508 
C 0.98309003 0.21525357 0.91677405 -59.32747363507982 30.244563824350134 -68.00765642193532 
C -0.40699005 0.55376524 0.21372935 58.00534245922988 -32.058284229973296 -67.30667728340455 
C -1.32247643 -0.5281512 -0.2992953 41.17851453481376 -9.445592326129471 -46.47993267045266 
O -1.19595592 -1.16939808 -1.3501829 5.6796476166462115 19.8463848500331 28.33809916885532 
O 1.88434579 0.93948587 0.62781794 41.91327297167653 13.683917150252903 21.6824627256679 
9
Properties=species:S:1:pos:R:3:forces:R:3 energy=-167306.72432676933
H -0.64754409 1.26763904 1.28571508 -13.008320511223518 9.614852864850754 1.1444015032142079 
H 0.78968369 1.09499908 -0.74638231 -10.238091947211856 0.06879777965764042 5.738165513651317 
H 1.45266246 -0.37018822 -0.25360979 -26.107300598918854 -16.164303776603887 -7.9540357824327765 
H -1.72846544 -0.54263232 -0.34555009 14.337195451365186 11.236939846067392 -25.686922294633003 
C 0.19304599 0.53642264 1.19836979 -24.21246054714336 15.841290866808093 -7.849902907230065 
C 0.4454408 0.15687435 -0.21960805 37.34773268796833 25.67907927423113 5.226875053010733 
C -0.78378512 -0.29831928 -1.01885803 21.02443402544314 -22.09217575546109 61.92824007079228 
O -0.61769151 -0.55007801 -2.16702832 -22.08379318648303 -8.644404194239023 -49.75360748888199 
O 0.73508765 0.16228073 2.20089619 22.94060462620396 -15.540076905311011 17.206786332509292 
9
Properties=species:S:1:pos:R:3:forces:R:3 energy=-167306.6785939115
H -1.30420637 -0.7464111 1.29661843 -82.81469551672211 -8.998333830360448 -14.94750315521367 
H 1.36273877 0.34491773 0.10442968 6.764389277187488 11.75258938487509 -2.61101192955465 
H 0.65812593 -1.18681231 -0.42906518 -4.323592472296591 19.160158511142452 9.018212934384797 
H -1.4909679 -0.11767499 -1.13013456 6.261220504894717 11.372839681286107 -18.126748672064192 
C -0.31503451 -0.44240286 1.26164348 80.3365014734862 -3.8265911552669225 -4.047270080387621 
C 0.38653396 -0.11220179 -0.08373006 -3.0880250470236867 -41.61971585667702 12.516942357596585 
C -0.42277332 0.31603512 -1.27659717 -10.65135651103946 -13.10933230543171 37.80802217121789 
O 0.0112637 0.93311112 -2.20740879 -4.1520824310500055 10.736040735257717 -21.029546099974812 
O 0.30111746 -0.64649555 2.29145238 11.667639536742406 14.532346020995774 1.418902473995678 
9
Properties=species:S:1:pos:R:3:forces:R:3 energy=-167307.3949918878
H -0.18983352 -1.92049898 1.3552016 13.723560333660085 5.652929882646413 -14.795118035805828 
H -0.96698669 -1.40227787 -0.95622465 -5.654694384363678 -34.76710267944732 -24.103858312416204 
H -1.40631216 0.25281559 -0.51402816 -2.1873904047064885 -0.00039606422954740686 9.087846717880254 
H 1.47040493 -0.63689381 -1.35104136 -11.169991947242368 -15.882425813091835 6.615607867940108 
C -0.32927439 -0.84954469 0.97918955 -44.53879460755675 -0.8394972666202648 40.285983793528686 
C -0.64009978 -0.54006549 -0.43341144 24.23238471236748 40.96471100012096 -21.877312096752664 
C 0.62145509 0.06924617 -1.07744442 28.29416568490172 -40.57504308929863 -13.721355892334552 
O 0.88609873 1.21072584 -1.31224612 -18.75300211152562 41.332444779045254 2.9161130124423207 
O -0.55617612 0.01404181 1.80372685 16.05376153864458 4.114380436696022 15.592091759696844 
9
Properties=species:S:1:pos:R:3:forces:R:3 energy=-167301.27684402178
H -1.34712359 1.13430461 1.12808892 12.466565122076037 -6.604352054566264 -12.409514085705514 
H 0.33413055 1.68418731 -0.87807723 -32.03586746890933 63.55175122308583 -19.802647026552183 
H 1.56145202 1.07561017 -0.00822736 -7.079247295646163 -22.160790918677556 -6.847673046749771 
H 1.2193603 -0.10147482 -2.1103837 -5.682522046863047 1.441607389573954 -7.618472142680306 
C -0.34303654 0.56712046 1.06233561 -14.810303660127937 16.442861441185602 8.889073464952457 
C 0.50299004 0.81550722 -0.3281866 15.033051842974864 -25.89158907816215 104.99904988541564 
C 0.361895 -0.18013076 -1.36818411 12.248382350258328 -61.749609174161165 -25.304770117603713 
O -0.46861949 -1.07589309 -1.47392532 7.986179833541583 22.21508966439904 5.937078693462607 
O -0.03460019 -0.06570012 2.06761135 11.873761322695668 12.755031507322718 -47.84212443871818 
9
Properties=species:S:1:pos:R:3:forces:R:3 energy=-167304.78047759985
H 0.51363536 -1.95565912 -0.04492621 -5.502427847060493 26.283718753477107 -2.0578216680552988 
H -1.6245691 -0.52414735 -0.76300208 13.12089643227766 16.303463433879568 -9.266075621176588 
H -1.364928 0.58514485 0.65092705 -18.86522465790789 3.120253291426798 26.955147231527874 
H 0.56105045 1.50686589 0.35360765 4.691568158714388 12.087154563306367 7.10970748086887 
C 0.0082435 -1.1088052 0.5716957 -37.374165824916965 -3.0299435321637103 -22.13979121376422 
C -0.88389775 0.0548834 -0.14446611 35.95932597382676 -41.25568421106004 -14.210935155433868 
C 0.17714759 1.0437595 -0.58938176 -2.418517599068331 -9.415899367123881 0.5261535416380316 
O 0.70978039 1.25232164 -1.64852314 -1.761466015385928 -1.0354506370993677 -18.170663182881047 
O -0.06488262 -1.22021449 1.75786301 12.150011379520796 -3.0576111088217943 31.25427858727625 
9
Properties=species:S:1:pos:R:3:forces:R:3 energy=-167308.03440761054
H -0.31435298 -0.59387176 1.4084903 24.199631149240744 5.428254740598844 8.523655594532066 
H 1.05408605 0.7107234 -0.87913243 11.757617266112458 12.212785188261968 -17.875684268446722 
H 1.19597623 -1.08679306 -0.92053898 21.51865814958179 -9.267764230346874 -2.040009450115084 
H -0.79799418 -1.04152791 -2.15524193 -0.75571189475529 -0.6913336701381382 -3.1988174932238174 
C 0.63333353 -0.07668957 0.95278367 -101.06492136272138 -58.966935418265976 -56.038706872191064 
C 0.62598532 -0.23331332 -0.56021724 -36.29942775072437 -15.866343708058537 -14.347330663850041 
C -0.76786535 -0.43824407 -1.21013682 -40.015114992612794 38.198629252309075 50.75573892621543 
O -1.81175159 0.02935291 -0.69185948 53.29485689735989 -27.455740400507537 -30.746384318112977 
O 1.37104503 0.6591213 1.46602683 67.36441253851895 56.408448246147174 64.96754091683431 
9
Properties=species:S:1:pos:R:3:forces:R:3 energy=-167297.7648927987
H 0.79781338 0.85709301 1.43046471 1.2744350817156451 58.564107265469055 28.13994847197696 
H 1.20593796 0.7736996 -0.94512745 -17.459831057274503 13.407272215019272 -21.356939432716562 
H 0.79541714 -0.906995 -0.96955832 17.318823890808297 -71.85697620920145 -32.27179842433075 
H -1.46437993 -0.34930179 0.22082738 -37.54702651633556 -29.127097060387246 31.15403164764308 
C 0.92637146 -0.06680817 0.94227819 -22.461517507724512 -54.32932330299062 -45.73717231316778 
C 0.48402485 0.00589909 -0.62116777 16.381007829576554 35.68218180793253 97.34193183482832 
C -1.03658017 0.17602443 -0.59798659 76.96331966775675 36.42609952655884 -36.72595216549449 
O -1.53804811 0.95865234 -1.35273906 -40.54770754253358 13.270807928982398 -13.350747683193415 
O 1.1732362 -1.06861404 1.57718125 6.078497339831963 -2.037072171382782 -7.193303121366397 
9
Properties=species:S:1:pos:R:3:forces:R:3 energy=-167311.4808459026
H 0.61529334 -1.6446431 1.27373112 2.615889211519107 -2.7215019913879113 15.917237961555378 
H 1.34355592 -0.22529734 -1.08622771 -20.297741543339 6.819788464840169 -2.9452071318194033 
H 0.09130756 -1.4886039 -1.05940232 -11.956174699609784 -24.761915472346086 -4.856169606543779 
H -0.44763029 1.3715752 -0.05465497 6.350510458057773 35.62627034558774 20.152681240535692 
C 0.83306244 -0.64129773 0.834577 34.167218342598005 33.94046208461374 39.25543296899366 
C 0.38003549 -0.56754745 -0.59100005 20.348208901259085 42.80663615933629 0.5577260270024021 
C -0.74632914 0.49779924 -0.60227669 -21.847517157137073 -37.25360932821954 -43.2766126147151 
O -1.84316108 0.35835784 -1.13237503 27.784263820706645 1.4254209322885585 14.04705824426392 
O 1.39170277 0.30064621 1.46002009 -37.1646585198758 -55.881552380534 -38.85214827509381 
9
Properties=species:S:1:pos:R:3:forces:R:3 energy=-167304.64345927656
H 1.73411604 0.90441319 0.08134132 -14.98637674076164 -8.424681040881843 -9.7362584094175 
H -0.79735787 -0.06807173 1.76805512 1.8464538097921037 -11.69011796050079 1.7030916027274545 
H -0.59917884 1.54813046 0.78261659 12.550689638760328 -43.3768654834535 9.43679946306931 
H -1.16018605 -1.23378729 -0.7545682 5.058575029337155 8.808154222556993 7.5594360418778574 
C 1.0830455 0.04423886 0.48059355 -4.265369844732075 43.49432580139838 46.88165326639211 
C -0.37716992 0.3891883 0.86526786 -10.584035078584773 43.4253869090362 -88.67293726954699 
C -1.02737985 -0.10807306 -0.60320745 -8.505705821350453 8.77961625325074 24.014618163737108 
O -1.29689866 0.67231528 -1.49132659 6.7484648863533785 -7.507826738289948 13.538572250398424 
O 1.58997453 -0.98900138 0.81554081 12.13730293536493 -33.507991963116226 -4.72497510923777 
9
Properties=species:S:1:pos:R:3:forces:R:3 energy=-167309.93109297653
H 0.77647693 -1.03296625 1.12530861 6.516900124025359 10.222978657973588 -1.0265036173031545 
H 0.40837748 1.55215887 -0.55662508 -1.4718695426818877 4.774802123792718 1.01457781503801 
H 1.21306429 -0.02579373 -1.02455827 -15.926620177675675 8.844223341329878 4.939511481337345 
H -1.7632221 0.63413871 -0.99766349 -5.396912304517505 -16.232201518087198 -0.3276210103826846 
C 0.69158457 0.11038619 0.98460379 -25.124422152097196 -73.97814562338445 -37.414201515090554 
C 0.36073876 0.45515914 -0.4417345 40.678612699504235 14.966260472527983 -17.089353288448482 
C -0.90358445 -0.10629519 -0.97935626 21.651529397847618 -69.205693796906 -40.15324772886216 
O -0.84741145 -1.26785572 -1.47266241 -30.539134816344447 65.8343678011144 28.49971116182636 
O 0.69566915 0.8521125 1.8919014 9.611915586118453 54.77340972746013 61.557127887706365 
9
Properties=species:S:1:pos:R:3:forces:R:3 energy=-167299.3416962852
H -0.40199888 -1.2897639 -0.40827864 7.9701439755291 -1.8905497512290792 50.77481760103335 
H 0.55694182 1.17892936 0.92398592 0.547776988421855 14.998066564638524 14.671026606568649 
H 1.93218288 0.26382723 0.2534288 -32.12946432411346 -4.3056379558307905 5.816973994583925 
H 0.92686946 1.56822171 -1.93565638 8.081134453844005 -23.938295163718063 44.7144075896244 
C 0.01601178 -0.79708406 0.63546731 -49.60458061467797 -56.63997269055961 -8.329316126497316 
C 0.76816841 0.36485722 0.23181069 82.38385471334254 51.34957083244314 -28.423242305818594 
C 0.36878568 0.88822956 -1.1257042 -85.17837363567173 13.703470153489452 -66.86405534792753 
O -0.81342409 0.67006059 -1.52525214 59.16682571461962 3.928421165997235 25.23124446943348 
O -0.2420808 -1.12076679 1.79273973 8.762683914527065 2.7949268447691864 -37.59185529517931 
9
Properties=species:S:1:pos:R:3:forces:R:3 energy=-167309.76964614802
H 1.9655755 1.4177048 -0.10677522 1.8757791642732635 18.30411666928073 -3.326526862474018 
H -0.13287575 0.75013953 -1.59204452 4.75645154309737 5.581855326579399 -11.976441567116355 
H 1.37496004 -0.2783393 -1.53221651 -7.922985058328887 0.05023849445810011 -1.4732830413693743 
H -0.24748205 -1.92388406 -1.29515083 -6.897466858315416 -15.834581491326718 -1.7449771737336626 
C 0.9822496 0.97998123 0.19841854 7.637351599562415 -48.42906553884441 25.067690101588195 
C 0.46989479 0.05554146 -0.9734905 -7.308883912952493 35.23670322955438 27.095458321039754 
C -0.53779331 -1.02596135 -0.69063239 16.639051975874015 -7.410297700495468 -3.5220995843971785 
O -1.51697129 -0.97151715 0.01075703 -4.12738059282934 4.174788532449329 4.308341627816922 
O 0.64398421 0.96655306 1.37468486 -4.651919046201972 8.326241292523614 -34.42816063553323 
9
Properties=species:S:1:pos:R:3:forces:R:3 energy=-167306.05986307783
H -0.99120804 0.0808782 1.8587031 18.783582064674032 -18.050910672853192 -11.014888925995837 
H 1.19385438 -1.26357436 -0.29725423 -10.556168283990866 34.230308765558604 21.509889002942558 
H -0.14774012 -1.90092512 0.53784886 -16.70855531905435 -4.190862336735301 -3.061761482484717 
H -1.75683424 -0.90706088 -0.97673041 13.648847678622257 5.140104969571594 -6.956629841969844 
C 0.03475038 0.03119375 1.29427697 -10.944202133411045 37.67765419118133 -1.0534051535651678 
C 0.19237844 -0.91818 0.15958136 10.973478869229295 -57.60778290934277 -28.748891295800867 
C -0.68266848 -0.47127171 -1.03473406 -31.383173777573 -15.827168923964738 29.010258112670762 
O -0.35828122 0.33124361 -1.86136804 10.086476425663225 8.004581404541932 -14.264732298852662 
O 0.80737306 0.93985162 1.47601124 16.0997132900194 10.624074326221503 14.580161883055776 
9
Properties=species:S:1:pos:R:3:forces:R:3 energy=-167306.5741835187
H 0.86160595 -0.5367219 1.5703888 11.631582276179987 -27.325385464502485 11.339023622501667 
H -0.97692531 0.47506033 1.3576225 3.8613013231204625 10.044709436761671 -20.204469603101632 
H -0.61440116 1.53018155 -0.00031032 -0.31325597422478857 46.6026449898127 -18.225212136843354 
H -2.51686329 -0.02312617 -0.36644606 25.51416239800336 -9.853330963880156 -3.312932609996379 
C 0.91482205 0.21181539 0.77228152 35.06895579848849 37.96231053340544 -10.826358795268133 
C -0.46190962 0.53788361 0.32149097 -33.36042246297843 -34.50202661434382 53.5887733161365 
C -1.38449541 -0.35557956 -0.47265631 -12.358974392701588 6.356367228206679 -10.115123490505757 
O -1.02660249 -1.26133538 -1.18376925 -4.515624332574756 -7.991703387976409 -1.1650798506239315 
O 1.93036975 0.87446109 0.55614242 -25.52772581913379 -21.29358457166258 -1.0786204522989884 
9
Properties=species:S:1:pos:R:3:forces:R:3 energy=-167309.0613016427
H -1.29557874 0.30896154 1.54506742 33.017490131242695 -11.327970584526781 -27.43114647200211 
H 0.82643591 1.26348497 0.2112379 3.078228979358144 -1.804517248480894 -0.7534434190932416 
H 1.47383366 -0.33714853 -0.18147155 21.342338418170403 -18.762297762709526 -1.0405971004413908 
H -1.43556457 0.05198986 -0.9333274 -18.52602884828984 -7.0819699407690395 -0.48408535419065507 
C -0.24425194 -0.22446327 1.28043664 9.280387295387388 -18.255173091405464 57.34712047017453 
C 0.56189949 0.19573851 0.00726684 -56.2449045506913 19.571068034371606 23.136249683210963 
C -0.38724845 0.28947053 -1.19279035 16.000781425926856 13.599957462694086 1.3912799585373627 
O -0.08478145 0.70990731 -2.28685687 3.4379952266706826 -5.2661470744303465 -3.4878329136150485 
O 0.1640756 -0.98669795 2.17519053 -11.386286891953976 29.327050205256356 -48.677544852580404 
9
Properties=species:S:1:pos:R:3:forces:R:3 energy=-167307.5804952458
H 1.31046301 1.09372735 0.26818225 -9.179149009359303 -0.4354465323243497 -19.97877465495403 
H -0.4922346 -1.50399573 -0.00674972 -0.20986542299721708 -29.033432613383464 -15.31341551301047 
H -0.66328866 -0.61060792 1.54037298 5.414292883596775 0.8661806118097132 -32.84299300677986 
H -2.32570538 0.88033803 0.21253812 7.043372651524913 -10.674521525183795 7.871660351792148 
C 1.06773704 -0.00360958 0.3821829 -35.826821144264315 2.078082606456637 36.45190180671071 
C -0.4411616 -0.51563672 0.39773928 2.2958230670239868 48.254854197253785 50.281836217351476 
C -1.4058447 0.42750601 -0.2846841 6.679646947737947 6.1996929940734695 -24.855215872288568 
O -1.15400898 0.7774994 -1.4292391 -3.9695051219759767 1.7674176512185582 3.0671154645098855 
O 1.87565976 -0.69972878 0.93056323 27.75220633453424 -19.022825018278457 -4.682113607510253 
9
Properties=species:S:1:pos:R:3:forces:R:3 energy=-167302.7299110794
H 0.6065995 -0.15084925 2.18668339 -9.172058985321987 7.792028911053237 58.807511265125825 
H -0.72174834 1.05488178 1.02981662 6.2086874467115445 19.1506755002332 -28.930503346543006 
H 0.92025052 1.53495472 0.06943804 -34.46556380298348 -7.490627589830798 -1.6808503431783792 
H -0.09761595 -0.26880501 -1.91416636 -0.946431051134925 18.61364323631412 26.308481068571144 
C 0.88036555 -0.22604538 1.17167173 15.480730119394368 -36.703410893220635 -110.16387803798675 
C 0.03954913 0.79455297 0.22717038 33.61606176419348 -17.265716895238597 38.75633156289055 
C -0.66512879 0.26757399 -1.03769632 -25.97508748133386 -13.263694188524152 -1.7722083682466165 
O -1.89706196 0.30969769 -1.1020212 33.57903924529917 1.3621182473606266 0.38013035214492624 
O 1.6611249 -1.07401226 0.74448913 -18.325378440645355 27.804984857674047 18.29498466140126 
9
Properties=species:S:1:pos:R:3:forces:R:3 energy=-167311.6659341518
H 0.71437652 0.51137611 2.12024677 2.99477682320725 -15.765457610881278 -7.913749884018363 
H 0.10068228 1.83853262 0.04509215 -1.534782092485505 5.494548066206173 15.330519795785897 
H 1.39996415 0.81275464 -0.6990532 -28.251272166005947 0.11334789055544439 16.053229104994678 
H -0.29934031 -1.07324962 -0.93518647 -10.781481397761478 20.49073273284382 -14.365259092252819 
C 0.79578389 -0.0445115 1.11244967 11.678629726201823 -23.404235753162688 19.784639148139288 
C 0.41995156 0.79367696 -0.0549511 36.210657187179706 10.113278352957328 -56.54530741059255 
C -0.60974711 0.0516379 -0.88449902 -31.636582549399503 -23.90688276419498 22.138356370297895 
O -1.72718625 0.48830529 -1.1364559 32.100665474176964 -9.829638259370103 -7.159477576013583 
O 1.15148787 -1.2210483 0.97312583 -10.78061219093436 36.694308530867325 12.677048357838508 
9
Properties=species:S:1:pos:R:3:forces:R:3 energy=-167302.22198840568
H 1.67283747 0.63577994 -0.29677328 -15.885315658982275 -14.47600291979004 16.55920708734672 
H -0.94220436 -0.27192347 1.33909927 -26.334481380837783 -31.723962144856564 21.632896591743197 
H -0.33138042 1.16128215 0.76748036 -8.268884314323081 54.28060028783001 11.514170576898017 
H -0.03473205 -0.03038679 -1.66144558 41.685080684404895 -4.687919387354158 -24.36869839913144 
C 1.16917354 -0.02900174 0.54529072 28.848552439837043 -16.538238213780595 7.712907373364339 
C -0.38389788 0.13005566 0.53706439 67.22497539911836 1.229040666232698 -53.62305896005538 
C -0.8127787 0.17773322 -0.95731878 -17.64499938533524 -16.31789487601607 39.850244363405835 
O -1.91164286 0.3708906 -1.38957645 -34.53235754507246 8.739050501069343 -0.1728974518710482 
O 1.90922554 -0.67429477 1.28636422 -35.09257023880947 19.495326086665376 -19.104769995879188 
9
Properties=species:S:1:pos:R:3:forces:R:3 energy=-167307.0849318933
H 2.01628385 -0.28712034 -0.20497569 -26.88776532219981 -3.9093187747583755 19.640312868563797 
H -0.09665344 -1.91761665 -0.81429292 -4.123904951341904 33.369715742520235 7.751784516375452 
H -1.15522199 -1.07631673 0.41287765 22.037767914203318 -0.8118296899621806 3.978289684288812 
H -1.41180508 -0.13795516 -2.04386074 -6.063237008783922 -2.4407209123439166 -13.593680911894701 
C 1.05507643 -0.45545262 0.49130565 -22.733625491634047 -17.885788649584363 -97.52389014531602 
C -0.26492727 -0.90037731 -0.27180783 5.673124415069145 -11.909395245144468 -17.042789653413642 
C -0.87857936 0.21030451 -1.13845172 6.186086883385364 50.92461407309657 28.50151598145921 
O -0.91110848 1.41374857 -0.79451646 7.754057735321686 -61.933924896889444 -18.076299101459806 
O 1.01817838 -0.33836561 1.65133316 18.157497011801212 14.596645981423855 86.36475676139693 
9
Properties=species:S:1:pos:R:3:forces:R:3 energy=-167311.133940514
H 1.6520364 -0.21903552 -0.7318684 10.843084801129706 1.6004172874119988 4.615790636376761 
H -0.5117825 -1.82347947 -0.31236171 2.0334388156961554 -29.304734238981347 -14.85929704248716 
H -0.73362132 -0.82315621 1.08441263 -5.311815414575046 -11.066625112435728 24.190165925647193 
H -2.42686885 -0.33124045 -0.64577541 21.776233896565866 14.564863605734244 6.932745034450251 
C 1.11569778 -0.37170417 0.24526988 -8.59820104880233 4.4929241602806655 31.913494294368597 
C -0.33041332 -0.8411749 0.07547845 -9.506057341293014 46.3691544541051 16.71205467696272 
C -1.33663948 0.13024891 -0.59291916 -3.401526486205111 -55.07287460291356 -10.811889406858139 
O -1.03187552 1.14829864 -1.13012634 0.7442829515086496 36.31144604703115 -9.715802996364529 
O 1.57294864 -0.13412278 1.37259433 -8.57943898820383 -7.894571600232523 -48.977259936274656 
9
Properties=species:S:1:pos:R:3:forces:R:3 energy=-167303.46865914413
H 1.87373057 -0.28282396 0.97909844 1.8069232793843424 15.601118229503173 -13.490976951053081 
H 0.20430997 -1.77141596 0.41163901 2.023562112199448 -7.495360201627577 -13.40442387286546 
H -1.07420477 -0.48470104 0.48475834 -17.804218391434343 -7.846078634354945 2.577003767760668 
H 0.83821956 -0.40083644 -1.94634908 15.680800660547089 2.0082851796567556 8.50524928024753 
C 0.79012779 0.07924503 0.99700041 48.00636421112838 3.011821814930346 92.96766685757058 
C -0.06805581 -0.73565874 0.14417837 -31.867102603385508 23.98431569271359 -7.6731100332211035 
C -0.04958739 -0.27223176 -1.28549816 -68.0422883255998 -5.713335606757625 -62.18042863276189 
O -1.09096894 0.12476408 -1.87141104 53.412578095935004 -13.114565333710132 39.80258028643979 
O 0.46999044 0.75761685 1.98421348 -3.2166190387746125 -10.436202326174632 -47.10356188793808 
9
Properties=species:S:1:pos:R:3:forces:R:3 energy=-167302.27656151974
H 0.31061772 1.90776048 -0.11365999 -2.1233489532665564 8.114068261769814 -14.367812164966036 
H 0.38693907 -0.88735006 1.14445637 -9.328000382048428 -13.327628916069893 -11.375238597263277 
H -1.08522329 0.14436096 1.33993242 17.480877009208655 -2.476047707141662 -17.920553365206047 
H -1.54703165 0.41997303 -1.05848765 -14.366891967833917 22.032074787358837 -11.787891277430859 
C 0.68446056 1.04644312 0.48118889 -31.208892472540626 2.1025247498681074 9.282375917282453 
C -0.25061377 -0.15835084 0.59911457 -18.844277129120602 -7.86094171535239 -8.42932115863699 
C -1.01639069 -0.47477256 -0.7441966 11.91734617526158 -117.65021176980798 -42.21953853083191 
O -1.11700968 -1.55254456 -1.48328839 19.50145440983394 109.49787231958186 88.57865145231483 
O 1.67610741 1.14247779 1.14830331 26.97173093886386 -0.4317088243856269 8.239327724737844 
9
Properties=species:S:1:pos:R:3:forces:R:3 energy=-167309.89838326897
H -0.96308039 -0.41039516 1.66399311 33.54962021095533 14.420017936540363 -8.991024429429517 
H 1.60227754 -0.23944874 -0.05282621 22.35582764948768 -1.631403977179374 -1.1205866591363618 
H 0.65567894 -1.79464256 0.1119989 -13.147979399159794 30.45925909646995 -1.8516322903023836 
H 0.51966761 0.70030345 -1.79516209 10.217419528907365 12.80046268325811 4.027886649560729 
C 0.07421313 0.0633656 1.2704775 -46.674547248970214 8.267579911171875 31.97059632104413 
C 0.59896839 -0.64503332 0.04331644 6.436706604110381 -1.294278611108598 -16.668522000522856 