9
Properties=species:S:1:pos:R:3:forces:R:3 energy=-167300.2826778504
H 1.93598833 -0.43645679 -0.17149324 -3.160449067441674 0.030040404572228913 28.05178742045022 
H -0.07672722 -1.62239906 -0.91299094 12.723316723432761 -55.97387803557622 -40.80539357087498 
H -0.89307974 -1.0644332 0.55892939 -24.17040658954854 7.9475706860869915 -14.728688340778145 
H 0.2490402 0.35040761 -2.03686044 -4.727780761833905 18.153350195601433 -12.020933572782878 
C 1.0008111 -0.53683752 0.53792651 17.04294736761283 -10.28318516414898 -134.08814493872413 
C -0.23750863 -0.80961611 -0.29445443 -1.1342745914766785 31.776262782114614 45.39464434640893 
C -0.46619306 0.42647064 -1.16494978 45.5566950931672 -92.31156985983064 12.536543979496042 
O -1.21513851 1.25435859 -0.83165364 -57.645010575278135 85.16922028301342 3.3317041571632515 
O 0.91544266 -0.38899477 1.68483137 15.514963587187195 15.492188708167172 112.32848051964169 
9
Properties=species:S:1:pos:R:3:forces:R:3 energy=-167298.8286194263
H 0.71487567 1.67355257 -0.13544751 9.475553280691582 -11.938035195060722 -2.816380719143353 
H -0.28188941 -0.63304033 1.45965045 -3.4671035759003233 -66.74797769732294 39.38443369736355 
H -0.98743154 0.98355199 1.23432385 -31.61483340558474 36.623333583768215 27.38524808257438 
H -1.33652586 1.01621437 -1.07816757 1.9024364213996878 -2.3897958274998645 -1.7931025350868122 
C 0.8067017 0.67161018 0.42194775 8.77457532798186 30.42574305041028 26.15458521315 
C -0.58419301 0.11049545 0.81831737 37.14225954612754 30.856802044862405 -109.09455205105061 
C -1.06138043 -0.00313618 -0.67167904 -21.489709886193435 -55.78514631527061 4.145460806326074 
O -1.11428497 -1.02594563 -1.36350362 4.961439684130131 41.37071359585949 28.249255084405767 
O 1.86305247 0.2496901 0.8434059 -5.684618578473346 -2.415637239746263 -11.614947578538995 
9
Properties=species:S:1:pos:R:3:forces:R:3 energy=-167311.35432774678
H -1.55924157 -0.40454543 0.75667662 33.346428588808095 -12.083300644905083 14.674863923475282 
H 1.35016057 -0.9644789 -0.14850359 8.137022199767864 5.422683753322156 -15.433846312676954 
H -0.02335464 -1.61669807 -1.1425389 2.5611683135050507 6.767122594699782 17.861354806920218 
H 0.56655034 0.35763795 -2.39013002 3.281369611200381 -8.12894913008296 -23.32396396905864 
C -0.39480327 -0.66251122 0.87882562 -11.954208608314607 21.128929761886095 15.396272386995998 
C 0.31101443 -0.75210123 -0.47862975 -13.045174643529219 -16.551110301240886 0.11354829431231118 
C 0.137996 0.46746205 -1.38727328 5.125579847572414 46.33876423232414 43.436838382882726 
O -0.28008512 1.57469544 -1.02804734 4.260343149315753 -39.58092424477673 -8.968703719870325 
O 0.21824374 -0.69805914 1.95328115 -31.712529644146784 -3.3132160212265043 -43.75636379298062 
9
Properties=species:S:1:pos:R:3:forces:R:3 energy=-167311.92435576985
H 1.71217494 -0.25043172 1.4628497 -15.103541789265929 -0.4985879455899509 0.45228163372220764 
H -0.01976797 -1.98466086 0.90849244 -4.783737285378466 9.885807044881997 -10.896041197426499 
H -1.30954486 -0.71462529 0.83301599 -29.14849994445641 9.535439615184407 8.28843020263335 
H 0.38150611 -1.56438073 -1.57983358 -0.16425874554693787 -3.2732562235998923 4.509938320656553 
C 0.6890582 0.13432662 1.10228536 -4.60229955033017 -10.205485425894896 -17.67055857217256 
C -0.32776959 -0.97949682 0.50345663 59.13595997859899 2.7816942677107446 16.566801085328827 
C -0.20176916 -0.79312535 -0.99447628 -6.588237932364708 12.484888428887317 -15.788772038477477 
O -0.63491937 0.19692013 -1.56519629 2.1794726775786795 -13.774930101396594 7.056022990449499 
O 0.466915 1.31737296 1.0039769 -0.9248562230140103 -6.935569660183132 7.481897575286103 
9
Properties=species:S:1:pos:R:3:forces:R:3 energy=-167303.20993490212
H 1.62970554 -0.00500628 1.88738618 53.31416562146085 28.069753795126488 79.036705237048 
H -0.65759654 1.05783873 1.23966024 -49.76497832689734 16.973946812556232 69.95742607622907 
H 0.35669983 1.68604645 0.20471945 12.889380288612548 7.81132221948059 -8.088523304785053 
H -0.52910692 -0.93480177 -0.86096717 0.9008623199581354 -10.733288444608677 6.961406329145344 
C 1.14218825 -0.19367909 1.01321201 -80.3161373686538 -39.80830305881044 -75.08450598742536 
C 0.01411903 0.69944353 0.55445647 33.58362244364408 -3.2969406273626176 -65.83841026506208 
C -0.80078041 0.11190455 -0.59749603 0.35359286294420345 -2.063045209765347 -31.54553046616127 
O -1.5941232 0.68839595 -1.32984112 6.759506066117798 6.812767218423551 23.492504714404664 
O 1.2767507 -1.26568474 0.44587745 22.279987278634582 -3.7662138908608274 1.108927666606691 
9
Properties=species:S:1:pos:R:3:forces:R:3 energy=-167303.4936681828
H -1.38109975 -0.07353075 1.23916899 -23.07792270339435 35.732138076981556 -2.6988611101461486 
H 0.84869999 1.1378454 1.19810684 -14.19581475126932 -14.8509678354562 -30.238546968359945 
H 1.71156633 -0.23080361 0.65970089 5.232142470099504 -19.049108741775218 -13.69028263763078 
H 1.03843183 0.01800942 -1.72838023 36.91482025522046 -25.652476564872845 -29.660172239473983 
C -0.46576465 -0.57939582 0.9674956 27.09418000595157 -14.979223868208857 -1.6570260125321608 
C 0.76121024 0.26144116 0.4269751 -16.809801905829765 41.93068675374511 35.20242707220387 
C 0.57443882 0.69284499 -1.05089738 -82.51402940454854 28.932791981162847 7.746131707446552 
O -0.31621814 1.43123416 -1.54030752 49.16324173757332 -22.659401394867395 41.52670716871198 
O -0.47660649 -1.76626002 1.19616709 18.193184296197106 -9.404438406708985 -6.530378166040436 
9
Properties=species:S:1:pos:R:3:forces:R:3 energy=-167307.90256069574
H 1.43563923 0.18298032 0.93946482 -21.478709024344596 1.22882010351804 -4.914316341561316 
H -1.73718252 -0.2321579 0.44835841 -5.964724925341853 0.5353057084752978 1.992453282864278 
H -0.80588405 1.34159781 0.73478845 -13.09975205719664 28.487053707975498 1.0092345054022598 
H -1.24947724 -0.01638704 -1.78251459 -4.349487246490084 -14.92338355512686 -28.862964908836798 
C 0.38171273 -0.27608897 0.99545575 -25.41748240807821 -82.7004926491921 38.22569798933865 
C -0.84882674 0.37675786 0.25131805 71.81240119606167 -22.518430988853634 8.369967257794068 
C -0.4104049 0.39834931 -1.20638488 -13.084417019422668 32.87646992074498 11.954686494196366 
O 0.59801223 0.90760651 -1.66181893 -6.478426160170073 -10.732574580338653 5.518486235672861 
O 0.20912074 -1.36255849 1.61007212 18.060596459161406 67.74723233279744 -33.293245700691415 
9
Properties=species:S:1:pos:R:3:forces:R:3 energy=-167313.51592943945
H 0.25709296 1.35128078 -0.72035098 2.6630718451402497 -4.430819154609749 -1.6664971652309486 
H 1.42507632 -1.22048556 -0.31800285 -16.87941078708324 8.769829672153572 11.523906167690185 
H 0.50957755 -1.02804483 1.33495612 10.518093941828267 7.363431681093753 -32.80964416148775 
H -1.18830449 -2.11373227 -0.0903411 6.213982137684386 -1.0730411642749749 2.3001524996649376 
C 0.6619829 0.79773221 0.17458436 10.854259978672387 6.536089080200617 18.411306591141447 
C 0.55904819 -0.69821865 0.22047672 -20.2730693506445 -22.829802693435457 2.1773725885052415 
C -0.78397044 -1.10348176 -0.40634568 -20.750993178677287 -4.546398760374799 -15.3045052536667 
O -1.48700799 -0.42842835 -1.15635678 24.34433214826695 -6.727426049345505 15.617751741323117 
O 1.09559297 1.37183959 1.1518326 3.3097344506338358 16.93813857441359 -0.24984300793952766 
9
Properties=species:S:1:pos:R:3:forces:R:3 energy=-167312.23151482697
H -0.32203167 -1.99892972 -0.12651323 9.298421261863309 17.757491113095075 4.215208428642001 
H -1.74979534 -0.00407376 -0.87629942 21.08819443729504 -10.14171315583253 9.239344843145277 
H -1.45183594 0.66404713 0.80316584 4.475413140886275 -0.9012180662721001 -8.688188264740758 
H 0.77938126 1.48021293 0.37441741 -5.2648213265003045 -3.292862588783535 -5.953987315765351 
C -0.24510436 -1.04868052 0.54318328 -28.239105642068353 -60.52036098924533 -6.828861181667316 
C -0.96958896 0.144047 -0.07015838 2.2766590130907063 27.848545993819027 18.392367843207012 
C 0.23486448 1.00247631 -0.51221216 1.4426343106002655 6.085363243691482 8.686286207782091 
O 0.66832579 1.08802549 -1.63522397 -3.538646531280725 0.5897052489857387 -6.497344749146717 
O 0.24001515 -1.17032698 1.65363009 -1.5387486638862116 22.57504920054217 -12.564824625635193 
9
Properties=species:S:1:pos:R:3:forces:R:3 energy=-167309.24971447917
H 1.41862925 0.76062907 0.30570018 10.330008493993018 7.710342442440653 -6.716888843525869 
H -0.11676907 -1.68394742 0.32095874 3.980625751750514 12.644443022342594 3.274830993949709 
H -1.39925418 -0.4447552 0.39683487 7.911035539642812 4.55808502678854 0.7571052344849852 
H 0.9247649 -0.54757736 -1.73960447 8.176066543546542 4.383159820927893 13.940992480755332 
C 0.65392471 0.30389101 0.96769718 5.006835285434125 1.5830260359433093 63.04151377153458 
C -0.31566627 -0.58128113 0.15317884 2.320054134289171 -6.418120045026771 41.29698161482716 
C -0.06968606 -0.30681146 -1.2602931 -41.45706627029025 -5.1383297954649105 -74.74949968356476 
O -0.9700333 0.02011417 -2.04183886 20.51259927294219 -0.4135574616260995 20.117104237497127 
O 0.71619415 0.53917525 2.19161148 -16.78015875130813 -18.909049046325208 -60.96214099177931 
9
Properties=species:S:1:pos:R:3:forces:R:3 energy=-167305.57142444403
H 0.33714286 -1.22379968 0.73055047 34.63749836816473 -30.37840744587413 2.7463224117132308 
H -1.46647707 0.9717692 -0.42924474 -58.18615526658664 8.811361868487907 -7.5630551677119255 
H 0.04617765 1.50305319 0.17463354 6.401914614604631 14.561054748532731 7.817690078500558 
H -0.18164729 0.16454084 -2.4095558 9.781308936796949 0.43069020410664116 -16.012720272223515 
C -0.33780655 -0.42457571 0.95014918 -78.47393472731356 60.724000851748166 -23.268090452987337 
C -0.49476448 0.64765196 -0.23904319 85.41006528085173 -34.86197192063439 2.2148789223865437 
C 0.37257733 0.25284 -1.44897141 44.89595560603003 -26.929616504395668 65.5450630403878 
O 1.55477481 -0.11972631 -1.1901005 -66.20534361477996 21.46136876318091 -35.34649721443331 
O -1.12987755 -0.32667333 1.86582761 21.738689616411072 -13.818480565152157 3.866408654367949 
9
Properties=species:S:1:pos:R:3:forces:R:3 energy=-167305.6174064056
H 0.48254482 1.1758246 0.99817213 16.054946173870082 30.086739343801774 -15.299184474630835 
H -1.0918518 -1.38396938 0.12591141 14.577969299940706 -17.789555714193764 -1.6239439769755333 
H -1.48705104 0.09199365 -0.54040507 -42.14576504606295 42.25192567525525 -22.860747879466203 
H 1.48364112 -0.67529842 -0.95088446 6.8234870406843555 -21.655033499040176 9.801542601314216 
C -0.06712406 0.2538814 1.13100456 -29.024157121157362 -27.979219915685597 -2.4032288083151734 
C -0.65246296 -0.43525949 -0.20989318 42.11062086770637 -15.616835101654136 66.31697325063897 
C 0.47354217 -0.2770569 -1.15629084 -0.2846563422241168 36.954916422267424 -39.314008971230045 
O 0.41588788 0.56561313 -2.05446139 -2.3365465334045763 -15.344738975955067 7.2715827261122445 
O -0.19268193 -0.17155942 2.25414201 -5.77589833935251 -10.90819823479572 -1.8889844674476346 
9
Properties=species:S:1:pos:R:3:forces:R:3 energy=-167311.48442148927
H 0.62339248 -1.5874773 -0.24404382 9.223996761339793 0.8302561632045076 0.018221326201273813 
H -1.2023018 -0.7633885 0.50014208 -16.012077557216283 4.884884263185966 15.932259942573063 
H -0.40785132 0.64009816 1.52171233 -8.552855251982292 7.02503748650317 15.418881251069504 
H -0.28122638 1.92695642 -0.76529001 -0.05373903818751312 -5.935417358176392 6.176255241088426 
C 0.78564301 -0.73247955 0.49324365 20.59194730245098 -25.135822635638718 -16.312597813401133 
C -0.45982238 0.03971345 0.61746157 -5.02816583441945 19.73843837434469 -17.96552681421747 
C -0.74895472 0.89368577 -0.65462445 33.86845665902518 8.797311074907347 50.6515242293605 
O -1.43480202 0.41078382 -1.48400646 -38.78080690929132 -14.995206364274248 -59.00371484384575 
O 1.83222942 -0.57518544 1.07783932 4.7432438682809055 4.790518995943679 5.084697481171586 
9
Properties=species:S:1:pos:R:3:forces:R:3 energy=-167311.93139107598
H 1.61443593 -0.21260224 0.40881696 -7.3266629279034055 -0.08647481399854819 -4.24396340319977 
H -1.22056981 1.12961228 -0.14748332 0.6143252655541916 -10.081242211563756 11.539040801707294 
H -0.07432797 1.46873159 -1.26562066 6.8300778340610755 -27.20642626875477 -0.44773519582973825 
H -1.10604405 -0.64957747 -2.07648775 -26.134624287473436 -7.290094578469923 -48.560181771961346 
C 0.78056566 0.54608786 0.5456888 -6.695716008739734 9.64614549644814 1.8502757110251313 
C -0.31206047 0.60713713 -0.54630763 7.448150294122362 40.66334643935096 13.683823470390225 
C -0.71893506 -0.70996812 -1.08846653 26.946557143866674 -3.494420149528629 29.318521780289576 
O -0.56264217 -1.75228568 -0.47714247 -2.7652362574056895 0.45716721643399 -1.4891777866773186 
O 0.8000884 1.31020594 1.48879869 1.0831277580969216 -2.6080023157385086 -1.6506036057440507 
9
Properties=species:S:1:pos:R:3:forces:R:3 energy=-167299.40788099085
H 0.89711478 0.97773191 1.09995558 17.233448332919902 6.681990130125928 -2.352160239124489 
H 0.30596857 -1.75808298 0.02000136 -24.241782344161383 13.851125032742607 -0.41248785104211216 
H 0.01242957 -1.12778163 1.67687966 7.880972604470699 1.392394630321119 11.310796338309613 
H -1.77495571 0.32315686 1.35107693 8.285396872396277 -1.309064613738019 2.3210063485895502 
C 1.06231285 0.14301184 0.34611272 92.06072246146469 92.4795022789798 -54.33482551264661 
C 0.05729004 -0.82726653 0.6235666 -19.698664750622385 -61.239556710693186 -21.64873086017776 
C -1.24961122 -0.01230364 0.40736344 -38.10025116664527 -2.4872489727473646 -44.86922838546186 
O -1.753993 0.28687384 -0.6755665 25.292196857047152 -13.758876456068412 34.60398350792611 
O 1.8867345 0.33592937 -0.61948935 -68.71203886686969 -35.61026769056456 75.3816454678065 
9
Properties=species:S:1:pos:R:3:forces:R:3 energy=-167306.58386613234
H -1.11132569 -0.51886192 1.01006265 13.93221740501087 1.8750973171714977 2.2031357365625674 
H -0.57576038 1.77094658 -0.16540186 -3.044517272825799 -15.972544655166429 -10.438616657825404 
H 1.09761249 1.31360077 0.08869885 32.92418024473184 16.106809243161955 -8.589018050617854 
H 1.06263702 -0.13971369 -1.86155641 84.81358662204809 -8.683166312608622 -46.40553900127636 
C -0.11102411 0.05224335 1.07058305 -21.50856562665461 -4.696674304140829 29.518075303466002 
C 0.14117483 0.90530052 -0.16689006 -3.0162899886337438 -24.62234907845144 9.150044217592802 
C 0.16752728 -0.12257738 -1.36979221 -49.98874394420221 69.5355062045827 68.62874442491798 
O -0.78214113 -0.77070394 -1.65741244 -41.77906293144915 -35.61065426822574 -15.589032341396745 
O 0.60383677 -0.00888792 2.06578546 -12.332803322204251 2.0679758536768986 -28.477793631422994 
9
Properties=species:S:1:pos:R:3:forces:R:3 energy=-167305.89906893135
H 0.72523402 -1.97761413 0.52683349 8.719215272423716 -2.3239554855323177 5.911100911795856 
H 0.6718939 0.99797997 -0.66061003 11.623979977450562 -28.528445977426337 -1.4972567854674579 
H 0.34130725 -0.48623646 -1.69792314 10.795316371911568 -10.322087209402069 2.4986067667312124 
H -1.82747387 -0.82703465 -0.35051755 11.934497890878866 -4.072469963447836 6.120264328733516 
C 1.05354365 -0.89854592 0.4755652 -6.130330763597671 34.40292636366267 -6.59131276633841 
C 0.37593438 -0.11108512 -0.65310597 -44.02990187707229 65.04380343997998 8.820145244979695 
C -1.22904453 0.13463116 -0.48379368 -11.384447683510777 -44.75341873041377 -5.185929838094438 
O -1.91589243 1.11521658 -0.64514909 29.507414772257526 15.612543615286674 1.4246940239870238 
O 1.77093747 -0.31385927 1.27908615 -11.035742774920449 -25.058897238528033 -11.500311886326998 
9
Properties=species:S:1:pos:R:3:forces:R:3 energy=-167304.67367143178
H -1.41892972 0.12874339 0.47220319 -32.08361099588549 3.6366629415253358 12.908767276902578 
H 1.23278728 0.86482484 0.75924705 -27.425271914537504 -22.061115544788823 -25.915861649163965 
H 1.22276184 -0.83512446 0.45153799 51.09633519048945 -55.89382444254474 -1.3213354899277092 
H 0.59311082 -0.65891608 -1.95749611 3.0981638169716814 -14.844059242039004 4.9126953241906826 
C -0.57256788 -0.35620917 0.99918023 -1.6990206790746514 38.84342181801225 -57.6366742533209 
C 0.65561901 -0.00863864 0.20097089 11.572739464208128 70.34903517610459 14.388144252630168 
C 0.43021756 0.22743177 -1.28997921 18.669359038186233 -32.97183957841369 8.789628140346755 
O 0.09510708 1.23699798 -1.83156162 -15.142021682226448 43.831127438323456 -2.7201501553948453 
O -0.58318652 -1.10226336 1.91628758 -8.086674609773482 -30.889406194537266 46.59478536791618 
9
Properties=species:S:1:pos:R:3:forces:R:3 energy=-167309.7733495596
H -0.63884521 -0.13677286 2.36268445 -12.12425534638975 -6.121773878925773 6.074381354979391 
H -0.04998727 -1.68387073 0.5276282 -11.57130817820494 -0.1589925142792132 -0.2141746966803766 
H -1.56499362 -0.79504682 0.18785645 -29.122417810537563 -3.4475493868427285 -1.7583378194651316 
H 1.30122567 -0.48108634 -0.97984736 -30.17720563144301 -4.6316035600324925 -2.909551864591764 
C -0.09349387 0.10103722 1.42111328 17.436615052825164 19.822719419407118 12.291490502763526 
C -0.49681471 -0.68931875 0.22952125 -5.921875281824801 -45.26254151018127 32.60401211962672 
C 0.11346835 -0.41094878 -1.02845338 58.94472261842202 56.15191127839988 -80.04093913509696 
O -0.39716066 0.04775315 -2.05940838 5.191453392529264 -25.004005582283273 36.434033855181305 
O 0.81503618 0.89750634 1.46014624 7.344271184623613 8.6518345489167 -2.4809166883587923 
9
Properties=species:S:1:pos:R:3:forces:R:3 energy=-167302.98774773497
H 0.5295379 0.87810208 -0.90809118 -9.788626638475202 8.243491142432278 -5.327706602419852 
H 0.38129926 -1.15910542 1.48530527 6.126626258648252 8.86014891798503 -11.607048824547933 
H -1.10701957 -0.33389788 1.46739925 -16.024763470772267 23.978278677765605 4.5350136925068805 
H -0.31622536 -2.16954494 -0.5491495 9.633434680650181 -30.687450197920533 -1.2675217450142635 
C 0.64705115 0.8289281 0.20108635 -23.85378762683574 -54.79948356063165 19.41093238860352 
C -0.2389406 -0.49135893 0.82966218 34.8026950981595 25.813462444331307 -14.49495826921913 
C -0.65004985 -1.1412029 -0.42046793 -32.707367096222896 -4.164682965490636 -39.94236605722805 
O -1.26692758 -0.62778136 -1.36466768 15.53503242257899 1.2129419597047473 30.275703485032516 
O 1.48073217 1.40653071 0.81231845 16.276756372269187 21.54329358182385 18.417951932286307 
9
Properties=species:S:1:pos:R:3:forces:R:3 energy=-167308.0769917802
H 0.38438776 -1.78086138 0.52274784 2.6335543876495486 -5.374033073245386 13.143581188898144 
H 1.00061353 1.11740654 -0.72958791 -12.027210123582263 -25.16097508585707 6.558504655443535 
H 0.78838735 -0.5414783 -1.52859741 12.155383148861665 -7.790473113840163 -2.7485387112492314 
H -1.42073058 -0.89785693 -0.89937998 -18.402391588513492 -55.15515991115464 2.3819800809820597 
C 0.85159198 -0.76344419 0.70153811 -21.292260009553587 2.61074393399813 -72.38550139293258 
C 0.53568744 0.07124116 -0.64985444 -10.115504139061702 22.365050965587738 35.91389005460719 
C -1.0238121 0.08182977 -0.79910829 47.97746219476083 19.679427175784216 -5.87820386432249 
O -1.75135492 1.01507296 -0.9552282 -13.820909126655488 36.80510334870955 1.9810278970807775 
O 1.43098524 -0.42434703 1.68230607 12.891874070273442 12.020316945838674 21.033260091492604 
9
Properties=species:S:1:pos:R:3:forces:R:3 energy=-167305.61079547842
H 0.70377762 -1.80205986 0.01423829 -0.7413136556080906 18.881463291319335 17.587113530947942 
H 0.79517884 1.46165439 0.43281707 1.9539852481142246 -14.426447458254753 3.938520803850694 
H 1.21257219 0.53680319 -1.10523395 -2.182370824216446 -3.5421482608311847 12.436378861515085 
H -1.52854193 0.30320938 0.33322782 -1.0174973064546138 14.301622005789758 -30.29669844666167 
C 0.70519341 -0.8426551 0.70797528 7.730506143516173 24.981885276480945 -161.96737998122788 
C 0.59413511 0.53229678 -0.16538216 3.8002742287808577 -16.08676056672795 -1.0704726758881495 
C -0.84759322 0.5489916 -0.6040863 -3.999117445150401 -14.916006562396278 -9.907922607400137 
O -1.17314996 0.61480265 -1.78596104 -9.062650392283178 0.9475765542658915 34.21527848379359 
O 0.75940768 -0.82537071 1.85259389 3.51818518912252 -10.141184279645769 135.06518084524944 
9
Properties=species:S:1:pos:R:3:forces:R:3 energy=-167302.0326402827
H -1.22270288 1.00314501 1.08861058 -36.35748673498446 32.026206584843095 12.656616661206467 
H -0.42529086 -1.67879623 -0.03798229 1.2865185981799807 11.670107230340275 -2.3783360529060142 
H -1.87051337 -0.80809087 -0.42745323 29.606727284906015 15.972292075283514 2.9380518876245256 
H -0.07257172 -0.89074747 -2.34942492 -16.736341477817092 -10.410210314655322 -7.971351141354487 
C -0.56485461 0.15255158 1.1346689 -24.34152056656558 22.521467876553846 -94.64860495150641 
C -0.73911589 -0.59550432 -0.22413129 -44.00696572638994 -75.34464429369102 34.10427021816299 
C 0.01206803 -0.26322432 -1.44275602 80.62247170542989 66.38834070450449 4.893205169469601 
O 0.92484203 0.59762631 -1.44584563 -43.72639453767118 -33.039918750517124 -2.4024556529928236 
O 0.27111866 0.08213592 1.95413036 53.652991454912375 -29.78364229848277 52.80860386229614 
9
Properties=species:S:1:pos:R:3:forces:R:3 energy=-167306.33713002334
H 1.13492692 -1.65829829 1.16450843 6.012710359811511 -63.21529940336949 13.55484764426231 
H -1.13840227 -1.46868565 -0.11994419 1.345130175047764 3.643973528277311 17.17428297762338 
H -1.24270141 -0.32286333 1.38305344 -16.474449342223576 -8.81767992302392 18.385154493780853 
H -1.28566608 1.52869958 -0.06467997 9.13828561609522 2.308316877570428 17.688738394637205 
C 0.72514892 -0.74852815 0.82387097 -5.936726504611782 34.16286756517821 2.5310662462384013 
C -0.74101104 -0.5911001 0.46103041 23.31237612579176 -23.260702787867334 -15.192097719201172 
C -0.83540975 0.56473241 -0.4378138 -39.645501687329705 41.89447296480454 -37.163498786892276 
O -0.69716813 0.5206751 -1.64164858 14.277675535575748 -11.64207916408404 -9.612864242955691 
O 1.4956184 0.1821142 0.85687944 7.970502093485157 24.926130342514302 -7.365629007493009 
9
Properties=species:S:1:pos:R:3:forces:R:3 energy=-167309.36263030223
H -0.50668725 0.79892748 2.43194912 -10.148677482838913 -24.69644154908192 -25.298514911583165 
H -0.4046948 1.49138457 -0.29457556 -3.5027410558122645 12.242808991339546 -5.746811334901707 
H 1.19217203 1.34125371 0.58871503 -24.30612262250504 -2.926084581622752 1.9223333127397353 
H 0.80524378 -1.26928931 -0.36958086 10.791216988553648 -24.240984286597058 1.5110419551335912 
C -0.61713543 0.20948578 1.39086801 23.960736827024004 28.352168935572628 3.0957020524790453 
C 0.23194186 0.80367831 0.27088239 41.78683361676718 -17.02830603515109 -8.285273547007435 
C 0.77974455 -0.26426241 -0.81721244 -54.16238104441534 19.648659862910453 91.3960745081581 
O 0.97390903 0.01991913 -1.93529805 22.574030580263184 13.837726440737649 -73.21389225963088 
O -1.33861532 -0.73088969 1.15284798 -6.9928946212154095 -5.1895477781074595 14.619339038791665 
9
Properties=species:S:1:pos:R:3:forces:R:3 energy=-167307.1195367127
H 1.23956935 -1.63424709 0.07046046 -25.709016512372312 -4.752527661254339 -7.874451774535726 
H -1.13040125 -0.87624902 1.44877702 5.743272844898805 -12.250966254318756 -12.8949809214154 
H -0.44241152 0.61311478 1.38674193 -0.2757152515331364 21.36386344180736 1.9170564090825917 
H -2.49142802 0.36670269 -0.25302905 -21.995333308052558 1.2439357643984015 1.8030622460567782 
C 0.902096 -0.61992652 0.44224329 0.8041621710751942 -24.243862274277028 -1.9209162565891094 
C -0.58636111 -0.23408226 0.70364793 16.120233923229936 -17.09954423452253 51.87672164958133 
C -1.41711738 0.21585724 -0.40760671 54.58603102896862 12.81145168689648 -56.474008734347734 
O -0.83130041 0.49757843 -1.46438044 -32.34237612137926 -4.837663683291334 14.935911754483653 
O 1.83595574 0.07795833 0.74301902 3.068742410985751 27.765312028740695 8.631606813504666 
9
Properties=species:S:1:pos:R:3:forces:R:3 energy=-167305.78564195096
H -0.05861666 -0.14499187 2.1255842 7.8761036232535675 6.708271481980596 13.050561828543689 
H -1.75812002 0.05016666 0.29464668 35.636693712586904 13.550030839171228 25.722016668505628 
H -1.01802275 1.57715641 -0.12807076 22.91534545209142 -14.520173567952948 -0.5134118944928614 
H 0.70667721 -0.11567152 -1.41199461 15.023982683610855 2.331024164790797 -2.90472201546917 
C 0.36415838 0.42184076 1.25352998 45.74050921359277 -13.570368855940592 -8.642244814113258 
C -0.6863347 0.52129687 0.16495196 -69.05810769527355 12.398336536520741 -1.6794629325539168 
C -0.29698824 -0.31853823 -0.98804729 11.961633033887049 -10.804460238001507 -39.5224490373293 
O -0.98893787 -1.19339064 -1.47774337 -2.1050541061603965 5.641243616232672 7.617980026945989 
O 1.58770954 0.6384559 1.09916688 -67.99110473176759 -1.7339027909799403 6.871733355784253 
9
Properties=species:S:1:pos:R:3:forces:R:3 energy=-167305.5559282783
H -0.55864704 -0.61489348 1.9750254 -26.982551555913624 -7.073098813519806 36.646243646387546 
H 1.34736797 -0.41687047 -0.34107549 8.820815233870997 -2.9513769587245986 -7.267949370425618 
H 0.25989643 -1.71073638 0.2323485 -9.54312136392395 -83.19656665416338 -0.17391014304480118 
H -1.70679014 0.15660148 -0.47734315 -1.2967664636642582 5.594237669947465 -8.507124063322125 
C 0.15120856 -0.03706224 1.40263984 40.12737904273169 11.042014582435648 -50.557316676317406 
C 0.36797982 -0.71111462 0.04558253 -20.267377409621066 103.69757689801764 0.32025587586256793 
C -0.73760145 -0.14211658 -0.98433039 19.44820155827551 -36.95727857779215 80.73077392743227 
O -0.5111962 -0.16439899 -2.13689545 -0.44598610978607833 10.99275083287781 -66.82224685528935 
O 0.71652271 0.99569531 1.70114959 -9.860594117790269 -1.1482577932575857 15.631274844537963 
9
Properties=species:S:1:pos:R:3:forces:R:3 energy=-167303.84491231374
H 0.02811099 -1.93705832 0.3284833 -9.038138285429962 1.0684840539930867 24.604508400806107 
H -1.06529676 0.84771761 0.41476599 17.772202408998567 -11.324970457279013 6.459028499490621 
H 0.67510866 0.91023922 0.76856897 6.259355208388495 7.3520323833732775 -19.66700451450057 
H -1.14379001 -0.01254867 -1.78625188 -21.76358237182023 -21.875398181583535 0.3934672814554642 
C -0.09350576 -1.01371054 1.0167299 18.302807522845338 27.415608658829175 -17.70987328314985 
C -0.06386452 0.31993588 0.18392883 -47.655326792539476 1.3759638939001344 6.236881527914296 
C -0.23704962 0.43977051 -1.36838887 15.177354406129426 -2.225219281912452 42.27867424060227 
O 0.41764139 1.13166843 -2.08995123 27.557518235111804 19.671194020258024 -17.224654284038696 
O -0.02678353 -0.92886685 2.23315334 -6.612190331683953 -21.4576950895787 -25.371026682758597 
9
Properties=species:S:1:pos:R:3:forces:R:3 energy=-167303.58875210054
H -1.19247987 0.55961625 1.72449126 -14.816962045304308 17.13948150154926 22.226133215805554 
H 0.69184352 -1.09539955 0.38323462 -2.439724822664816 -25.62254169837376 -5.353619163929042 
H -1.1439185 -1.48133555 0.0937798 20.873299947239406 32.71434209561869 6.676873312310069 
H 0.94498721 0.62596913 -0.91621569 19.241414526715136 15.777378669862234 -17.329732258615504 
C -0.20886718 0.26063877 1.35099879 23.816474581785027 1.5905856451150597 -3.9801573524371276 
C -0.31916594 -0.66894798 0.19217589 17.89005879117299 -37.86617364951961 -3.636029713086479 
C 0.08357686 -0.02529782 -1.14832964 -0.16432870898868424 3.2322434168839442 98.65481004905203 
O -0.52052966 -0.2299332 -2.12206138 -31.41615383251962 -7.522107581153538 -94.52619620233428 
O 0.89815393 0.64312892 1.74467962 -32.98407725161409 0.5567916000177214 -2.7320807009441763 
9
Properties=species:S:1:pos:R:3:forces:R:3 energy=-167305.97201555732
H 1.61831581 -0.39488811 1.04173382 -32.90867326290612 2.076882555557529 -16.015145276263706 
H -1.46225718 0.28062623 0.4916946 6.089287125534513 -9.708756847705935 3.502040235573754 
H -0.09200085 1.37036045 0.5849648 8.786064748101875 30.960473635678007 6.726690840296643 
H -0.43253928 -0.7794864 -1.50383723 2.2534726541675316 15.233790001376793 -12.705657476407552 
C 0.4311539 -0.52610567 0.99548442 58.8623448161393 -51.139839407224194 74.82475544464192 
C -0.3710194 0.38122313 0.27177149 -49.884043060718206 46.79212614901975 -6.9775773707571345 
C -0.19968583 0.30472958 -1.16795609 -1.7529399620612398 -38.57385742024757 -21.902465732792066 
O 0.17582957 1.20179826 -1.86451731 6.663040709802073 16.602854788428104 -26.545902601048073 
O -0.04795446 -1.3517731 1.75125574 1.8914462319402705 -12.243673454882481 -0.9067368774227397 
9
Properties=species:S:1:pos:R:3:forces:R:3 energy=-167313.41917352274
H 0.7113558 -1.37039642 0.81507487 -4.326428956239936 -4.974627199988803 13.111347015389798 
H -0.36561495 1.57088532 0.7843911 -2.5225022466402236 3.250767127452088 6.091354011618648 
H 1.3555385 0.88393028 0.51992913 1.410310014692383 8.630847888034875 9.499397770295595 
H -0.9068172 0.85283471 -1.45104865 -24.91665681817342 8.06126365056698 -10.70019217919949 
C -0.07343127 -0.59669983 1.07942547 -47.765426719248424 5.191424932824147 -12.79592573193401 
C 0.26116469 0.735639 0.44994668 25.388113178218322 -10.250566784621553 -34.56449922453917 
C 0.09958927 0.58013568 -1.12785087 4.200179332698037 -5.402474991046866 28.993999320301523 
O 0.92522539 0.15829465 -1.89771476 8.779791754765629 -0.5054929815440063 3.5836152370079613 
O -1.19106713 -0.82009847 1.55418774 39.75262045992763 -4.001140455855814 -3.219096218940854 
9
Properties=species:S:1:pos:R:3:forces:R:3 energy=-167302.01730325213
H 0.09221747 1.83792956 1.21265521 -12.665452213824306 -3.212972639056474 -2.1172621338346196 
H 0.98364686 0.97052629 -1.08190548 0.31415956986225896 8.840183249024284 -12.77422164931902 
H 1.17711454 -0.71898271 -0.2836569 -7.715453331151279 22.68425738982411 -5.587394296687829 
H -1.50029993 -0.75114647 0.08406263 -15.342979217521988 6.178495257045357 1.2182176775408442 
C 0.42122656 0.76145498 1.06887645 41.786691318241594 25.78448097795365 -41.58804020488159 
C 0.58414945 0.25681465 -0.36704331 -57.79344691060096 -33.67772445861404 46.187396547374235 