9
Properties=species:S:1:pos:R:3:forces:R:3 energy=-167305.1101521845
H 1.14431505 -0.04076131 1.5130136 40.522796999808726 15.537921082648385 9.072994309272225 
H 0.16080087 -1.49734263 -0.70243095 5.048857225860686 -10.811249063493001 5.132239418569834 
H -1.20971698 -0.6558576 -0.22034308 -63.16344937810913 -11.568056656895301 -2.1277673224859983 
H -0.60295583 -0.02982244 -2.39835535 7.628530276797136 -0.28023560136258163 6.597565600716863 
C 0.18979422 -0.44620785 1.25189059 -42.132017822670306 -8.216448493465725 -20.436348608006988 
C -0.17704319 -0.52602879 -0.29572018 36.532955046884425 -5.7364946917967305 19.007667853661466 
C 0.01212967 0.38067048 -1.51341542 -23.08889154807493 -18.302029624238802 13.508154754733392 
O 0.59741434 1.41281268 -1.59281261 24.03499294095891 32.32168591575907 -2.6532413886643575 
O -0.58421629 -0.82858274 2.12504217 14.616225072723426 7.054907132844696 -28.10126343197539 
9
Properties=species:S:1:pos:R:3:forces:R:3 energy=-167305.42483758272
H 1.47435609 -1.19425529 1.38866214 -23.55626986954075 23.171170927210788 -9.64267104078175 
H 0.25968203 1.32862222 -0.29553669 0.6066518175619724 19.328358925848118 5.552773065412782 
H 1.46309474 0.19659104 -0.84437841 53.65139059649954 -6.997405484476482 -28.98164069335439 
H -1.04099139 -1.20602047 -0.47433408 -13.658223965637323 -18.606853225001583 -2.146134504675998 
C 0.74545583 -0.25660484 1.2466336 20.731402229167244 7.583432316575826 -22.847916109921496 
C 0.57035159 0.28780684 -0.31650077 -45.03919093024269 -26.7660040313191 80.96579772975306 
C -0.57260614 -0.39413989 -1.06517479 24.006396866421383 8.340887368269543 38.23748505054135 
O -0.96271989 0.03504316 -2.10481642 -18.79511180270963 3.3637545284093813 -39.834087551646604 
O 0.2688676 0.29258866 2.22040234 2.0529538726592147 -9.417341325516485 -21.30360475950592 
9
Properties=species:S:1:pos:R:3:forces:R:3 energy=-167307.47250926832
H 1.20511868 -1.38574116 0.21063078 -17.621892476422182 7.6120829388815 6.439562061190472 
H -0.80988091 -1.03615386 -0.93113744 -12.03951657440335 5.154254186299018 3.1554579466567483 
H -1.7081856 0.04998177 0.34801479 -0.5224940978883812 -18.637430806507897 6.997864397221497 
H -1.01839856 1.88617893 -0.6972321 -14.483877957360173 24.257017772967444 23.67516265930986 
C 0.32178212 -0.93673576 0.8355781 13.610421147608834 10.490830730147058 -82.46980539443852 
C -0.75510165 -0.27861936 -0.11294707 27.405798361311074 13.756921037162652 -0.7649470690658147 
C -0.34732715 1.04680689 -0.86359807 3.541385777898254 -34.531148007604976 -35.89826923396099 
O 0.37846583 1.13073596 -1.83761053 10.108133075436353 -8.625316032852723 14.930715486657673 
O 0.35433533 -0.97355898 2.01082385 -9.997957256180426 0.5227881815079253 63.93426033225013 
9
Properties=species:S:1:pos:R:3:forces:R:3 energy=-167312.1102543722
H -0.88007739 0.44402329 1.33835182 6.823893777303322 -7.8796622722142615 -6.093122070799053 
H 1.46536791 -0.97583655 -0.04206687 25.28261898045417 -8.159135390643913 8.365078117619145 
H -0.00293451 -0.96267904 -1.03855228 10.084387008979206 8.820911285375768 6.1958710928404415 
H 1.41292173 1.65153072 -0.1357285 20.899256384127323 8.491787839727104 15.673210220028126 
C -0.39606531 -0.51839008 0.94060111 -12.832763262745061 -18.141578550072335 18.514035454225045 
C 0.57454695 -0.40600753 -0.23645658 -43.403328265928295 -11.460027173733632 -14.370929688497416 
C 0.68978597 1.00258764 -0.63751226 -27.824547347478966 30.543927905014602 -46.903275527354886 
O -0.06992874 1.5345674 -1.45872221 17.04884089821418 -16.886911105202667 19.896103954872814 
O -0.70767626 -1.60310985 1.40101415 3.9216418270741147 14.67068983339143 -1.2769715529342136 
9
Properties=species:S:1:pos:R:3:forces:R:3 energy=-167307.75021373038
H 1.47608878 -1.27744567 0.85589985 -13.593376155885737 1.353459382078725 -12.814518220122855 
H 0.03876193 -0.98513105 -1.3943595 6.971262873684261 -15.804462822565418 -23.957162762389707 
H -1.39960009 -0.70868034 -0.21572223 12.18470968916387 1.6263156190686316 -16.620637360842153 
H -0.47901675 1.52568241 0.18150536 -38.204283247059024 61.045742561382056 87.17283095610468 
C 0.35042468 -1.03981896 0.81919133 3.2177704710108124 10.505232526757394 13.049436484370515 
C -0.31692272 -0.52179188 -0.49799556 -14.012861536923536 20.707747470930688 51.666890615394465 
C -0.15274588 1.02664401 -0.62975574 61.98555554525619 -57.56697169220474 -120.10858837171396 
O 0.38225197 1.57798519 -1.6051637 -23.82553306875961 -21.196400607792647 38.96914612283053 
O -0.26991864 -1.0852703 1.87287522 5.276754243691729 -0.6706612518336474 -17.357397463631496 
9
Properties=species:S:1:pos:R:3:forces:R:3 energy=-167303.59917511637
H 0.86598978 1.07550782 1.02227821 8.79577780829416 -3.433387126083792 -10.373549471180208 
H -0.4664881 -1.67212919 0.25919433 0.11458588772804168 -18.693566389030487 -2.815407160064136 
H -1.08414721 -0.00681447 1.0017679 9.094432767972787 -35.08832025617864 -13.770263895578424 
H -0.19370251 -0.18244126 -1.8132865 1.6802882640023147 -9.7823216279707 -42.59593473250125 
C 0.9435543 -0.02490274 0.73458058 -44.46939443080746 -12.85234946897091 4.659137138912316 
C -0.44910046 -0.59373292 0.20496175 -15.81097653757411 70.76600898816581 59.87465534133631 
C -0.85639974 0.12784716 -1.01004391 5.340522956290954 47.200336743546956 1.906569007746911 
O -1.48589491 1.19409463 -1.038305 8.22499944903239 -35.36733683350536 0.9363065110394887 
O 1.81284181 -0.7761043 1.06162255 27.02976383506093 -2.7490640299728524 2.1784872602889975 
9
Properties=species:S:1:pos:R:3:forces:R:3 energy=-167305.61623051995
H -1.47885154 -1.28867771 0.10283685 17.93509034541569 13.672711141363013 -4.593277823808025 
H -1.30548409 1.17126964 0.32975278 -9.698414116537931 3.6185269944394136 11.607017993200722 
H 0.25749477 1.02900366 1.23636491 1.6082164324351524 7.827697222312387 -9.242104248720597 
H -0.24538308 2.05417501 -1.42504188 5.23481412491738 -4.851236590990135 12.695575625869793 
C -0.60925916 -0.77195105 0.69071888 -54.210214693791045 -6.768333317988309 -40.12200608756977 
C -0.32941449 0.66234415 0.35991926 0.6746633978657507 11.259814334055324 5.773818409236863 
C 0.21792492 1.07010152 -1.01398972 -100.63435566982461 88.12023793796092 74.68746819879874 
O 0.91494874 0.45774124 -1.67705335 106.54553721745165 -92.89222373676809 -92.05444591066531 
O -0.19933811 -1.36557325 1.634174 32.54466177624693 -19.987192798563484 41.24795384365758 
9
Properties=species:S:1:pos:R:3:forces:R:3 energy=-167307.02967526644
H 0.38802478 -1.28005531 -0.1782187 -7.761607857925065 -44.231004082535506 -26.672356185809978 
H -0.8369016 -0.1436167 1.4544585 -20.302368617062633 10.920990872245891 -7.435250932778001 
H -0.21811046 1.47519873 1.07505833 27.374575693155432 31.048836276782655 28.086195203936892 
H -1.33366139 1.78852254 -0.92799679 -0.24803700248563332 3.3567617416978814 0.4707982293640721 
C 0.77672385 -0.53112402 0.47052419 29.463986448069758 70.83666732104548 21.160170217357436 
C -0.34793124 0.50329145 0.67719454 -20.560977214178255 -27.210778231995604 -17.736983523916056 
C -1.07977863 0.73465482 -0.64148151 -1.0203314187558663 -62.26567493615621 -4.808519759430295 
O -1.27756294 -0.22576595 -1.39716863 -3.9207334881524574 31.283563623841825 7.968987800008715 
O 1.89219475 -0.42071612 0.92747058 -3.024507728486329 -13.739363770747445 -1.0330398629117332 
9
Properties=species:S:1:pos:R:3:forces:R:3 energy=-167308.41038121528
H 1.46110055 -0.68826879 1.16288663 -44.76824979424296 -6.519670201990098 -7.569069652060024 
H -1.43158642 0.60356571 0.81614392 -23.014909358801777 -9.046478164850342 2.067428004353393 
H 0.13998714 1.32967749 1.07435789 3.639390329932399 7.61738118731748 -10.071096326689483 
H -1.22366406 0.4451926 -1.7280957 34.768447400514106 14.572315305190761 21.205696258976545 
C 0.25298023 -0.75730965 0.98957236 10.422194222151745 -3.940294792136332 -1.3518715676973958 
C -0.39746389 0.53801682 0.51285116 28.813238689070808 18.59205892162484 -30.16351414163955 
C -0.25777066 0.79177349 -1.08922639 23.166010234016202 -4.452390425267524 7.479274539131137 
O 0.79587923 1.2084092 -1.58072471 -52.56908816985101 -17.201530773630985 15.253193591161477 
O -0.42759683 -1.74459908 1.18704597 19.542966447210485 0.3786089437422038 3.1499592944639008 
9
Properties=species:S:1:pos:R:3:forces:R:3 energy=-167295.63728607353
H -0.58117305 1.46629169 1.46335979 14.676656884897662 -0.9835780812391229 -3.611066994235573 
H 1.10564621 1.48692223 -0.55571751 12.310341499940517 26.735587721475113 -16.92007970569569 
H 1.28808179 -0.33973317 -0.59363725 1.1262264240337494 11.78569869431579 16.51637523114537 
H -1.66531665 0.67931619 -0.9772248 22.49432680444043 9.622153965034359 -15.737788848402147 
C 0.17425822 0.65888104 1.15846541 3.9381698008209156 -39.52106755581008 -45.85378714070647 
C 0.63741357 0.53895754 -0.36345259 -31.115930031596406 22.09198602409364 17.421244440419795 
C -0.63340511 0.16452158 -1.1759179 -3.3271458610603166 87.8512557783301 87.83910467006609 
O -0.61061189 -0.94248908 -1.51801326 -18.595642472827507 -122.52330897179125 -71.79850337339613 
O 0.46741237 -0.28762435 1.84573813 -1.5070018628279984 4.94127242559147 32.14450172080474 
9
Properties=species:S:1:pos:R:3:forces:R:3 energy=-167308.24769687784
H 2.19848505 -1.11318152 0.29021963 33.58119743960389 -0.41818690699182726 -13.119824450051578 
H 1.11526327 1.29609761 -0.41621061 -1.8890947488049634 20.903329679422217 7.404373338546908 
H 0.86635196 0.13843111 -1.59527686 4.899526781468754 -11.42938318624871 3.413518694448862 
H -1.2345114 -0.56186666 0.3341177 2.4886897453189225 27.66227722382709 -15.332249908692809 
C 1.26696319 -0.58604838 0.47674881 -35.48832971234791 -36.71283105561442 25.901361429406762 
C 0.644187 0.31519713 -0.51552146 -3.229517214297928 8.558485530311307 -14.033072670840921 
C -0.88772006 0.31437328 -0.39358762 59.19657796467754 -88.44565213537597 68.27197474739008 
O -1.59620257 0.94900468 -1.05702601 -69.58626290283814 64.79904286104598 -57.60893078411583 
O 0.64224927 -0.96647639 1.46898474 10.027215018861934 15.082915617982252 -4.897149210270424 
9
Properties=species:S:1:pos:R:3:forces:R:3 energy=-167312.37695905566
H 1.58251449 0.85553151 -0.12454504 5.289645304288764 -23.37983748512994 -2.2606705879200844 
H -0.67112783 -0.32512457 1.53640095 -2.415143938190899 5.898539509449761 -10.674612833404378 
H -0.46250839 1.32885744 0.81644089 0.7886658616388902 15.304215913331346 1.081649039251875 
H -1.85135363 -1.0028629 -0.46327765 2.689449248499688 0.7741810575552927 -11.032641852883721 
C 1.12023693 -0.05252792 0.43012271 -7.035347014681868 49.39124073601437 1.9936355464476876 
C -0.38714201 0.2619009 0.61683598 16.402996509242715 -41.748922917909006 44.252085609101066 
C -1.23344727 -0.056164 -0.55256092 -7.973202208008151 20.434652883910424 -6.815099728422114 
O -1.27346154 0.75536855 -1.46088119 -10.815097052789053 -15.708417246900172 -12.305774903090256 
O 1.73732903 -0.92428641 0.97854324 3.068030918357821 -10.96565245032207 -4.238570289080065 
9
Properties=species:S:1:pos:R:3:forces:R:3 energy=-167300.87443512212
H -0.54416371 1.29387168 1.21534262 -60.86593295863067 26.251892502408772 -39.6085123714247 
H 1.24052299 0.62181053 -0.88431536 -1.2240863059002156 -6.068834084123633 1.4210582966583043 
H 1.41249973 -0.99218642 0.0724229 -16.373850213739583 31.601778701683283 -12.516197661979351 
H -0.2886123 -1.92518618 -1.38803694 7.060703426120227 -9.981348646602457 -5.884851577109444 
C 0.21594947 0.58701912 1.00635632 52.48795429384612 -12.946543977982495 33.32831042903787 
C 0.68478005 -0.1596101 -0.30538195 7.010602486903528 -29.49696887465847 22.101880514906046 
C -0.38747935 -0.82604614 -1.23444814 17.193890528628067 18.94326828426548 42.959679409424965 
O -1.34970538 -0.21472922 -1.60351722 -22.64499485497287 11.962887632554299 -18.297126254211324 
O 0.84963757 0.57713772 2.0660206 17.35571478356644 -30.266130351723728 -23.50424197112341 
9
Properties=species:S:1:pos:R:3:forces:R:3 energy=-167307.11604127914
H 1.09554332 -0.91205079 1.73614985 25.95482298546938 -27.587715168062175 36.4080216847042 
H -0.55204518 1.21655123 1.03362869 8.170199101008215 -0.641995213854369 4.617142472369826 
H 1.29489981 1.13335705 0.86695495 -34.377809488075705 -18.65245041588349 -21.376256457564846 
H -1.20730042 0.21013654 -1.23322767 10.31634190643154 -6.0337634266719435 27.689170459341778 
C 0.16833942 -0.77394351 1.20959595 -20.69588095971787 -0.9957398618925306 -46.038023413424625 
C 0.28540727 0.6040575 0.59154292 -21.996057844712002 19.921958411150722 0.8410163033808943 
C -0.19257695 0.62416685 -0.88563325 13.408174624835695 18.364064666467975 -26.55628090684747 
O 0.44272204 1.17144745 -1.76805372 4.818347844264095 -1.5182600478439359 7.727156199059673 
O -0.6786391 -1.61624825 0.92936762 14.40186183049665 17.1438998707687 16.688054844801613 
9
Properties=species:S:1:pos:R:3:forces:R:3 energy=-167305.83950993136
H -0.93816898 -1.28750983 1.24214316 -18.260709689871803 -10.710463761104698 -15.187362735762301 
H -1.44489815 0.94580709 0.41615224 25.475409766202134 -9.274913545436517 -5.078481407245576 
H 0.23949287 1.61490999 0.16474434 -2.978056746450907 -35.98477132184362 14.14065984275223 
H -0.76506032 -1.096969 -1.3144475 4.53229579066819 29.332920019436774 9.544611940979465 
C -0.14108356 -0.52836367 1.20401939 37.988767386774995 17.255288784955244 47.40553240326287 
C -0.34156076 0.61733912 0.22936815 -34.593203208791934 19.693837273141884 -35.54250038939637 
C -0.37563242 0.01084468 -1.20029837 31.378473182944475 12.203931848328432 -74.54948250435916 
O 0.08005192 0.56379704 -2.24871367 -34.558363786444325 -31.87936517882787 81.57049887169347 
O 0.74739424 -0.64978671 2.04169242 -8.984612695030828 9.363535881350368 -22.303476021924627 
9
Properties=species:S:1:pos:R:3:forces:R:3 energy=-167309.63847575872
H 2.13448443 -0.07170524 -0.22872936 -35.74544298912384 6.618214302600423 15.213578867459406 
H -0.44554089 0.89032733 1.28017412 -0.9725902634217987 2.974364099711953 10.763759302220803 
H 0.43378912 1.5569773 -0.14294193 6.662626858256827 37.35351830885445 -15.745788397182167 
H -1.47765461 -0.87296879 0.00521464 4.6974901490208545 21.052560514846242 -26.76545499617455 
C 1.17816342 -0.24646355 0.50465057 65.19583518471595 22.75036454152713 -57.828195024728 
C 0.0376471 0.68769218 0.31474564 0.7704599511112216 -17.80792052474167 16.805923085186503 
C -1.04671802 0.10117374 -0.52892323 -18.881041139026763 -12.4894301234956 15.290989265378135 
O -1.460057 0.66496966 -1.51434189 -8.154958928917967 -15.244986523698309 -4.7783572152902725 
O 1.2923813 -1.16676532 1.23872047 -13.572378822614493 -45.20668340978357 47.043543927309095 
9
Properties=species:S:1:pos:R:3:forces:R:3 energy=-167312.89456325115
H 0.2139078 1.24348181 0.97161885 7.100503137905556 19.156552429339893 10.21480953678391 
H -1.47751299 -1.09509474 -0.18283271 12.065508585922661 18.520729414032814 -8.041077418891575 
H -1.68579441 0.66851835 -0.62109845 -10.643914298151316 2.5819035803250094 16.47240142927619 
H -0.48685318 0.18673887 -2.46968282 -3.5058799241224796 -5.2346564107181885 1.480639875142165 
C -0.26525823 0.25255672 1.05083353 8.992376265422585 -23.31157569658534 4.094228593830966 
C -0.95088337 -0.08197339 -0.25514023 -8.191483402972727 -20.39613623049746 -14.458092278702962 
C 0.02039088 0.08777843 -1.46046997 -26.451167357639264 -8.591235535974901 7.096700209809274 
O 1.20087058 0.24207409 -1.35755526 32.17806045642209 2.4754963003550166 2.7153369077669023 
O -0.08684453 -0.4992059 2.00162222 -11.544003462787101 14.798923335544204 -19.57494566919382 
9
Properties=species:S:1:pos:R:3:forces:R:3 energy=-167304.87623281282
H 1.77095521 1.13697705 1.34167433 7.42526869120815 7.3125658873020285 10.032550027750357 
H 0.24880255 1.84079448 -0.4600585 -11.134820495001723 25.08713282346741 -8.869098309423338 
H 0.98613694 0.37185055 -1.22838001 13.293619568454863 12.85346295493362 9.472904156473593 
H -1.46253529 -0.65036404 0.22739733 -7.211798372229424 -3.28288864796101 24.756197443259623 
C 0.93960375 0.46897841 1.00583963 33.004639388561245 27.906314451922714 -24.9834280296625 
C 0.41854366 0.78327025 -0.36125377 -38.27760256236716 -74.1861493073386 18.96066665066045 
C -0.84234826 -0.23199661 -0.56342369 32.69770976961979 50.471241484011536 -60.83544668534495 
O -1.03157619 -0.49976534 -1.7356157 -16.594950105331804 -16.132917465143823 5.89235426687096 
O 0.54703839 -0.43613647 1.68220612 -13.202064697092897 -30.02876336701494 25.57330047941581 
9
Properties=species:S:1:pos:R:3:forces:R:3 energy=-167300.7338136526
H 0.16468018 1.42326957 1.78248917 5.393098704031803 13.368562272775723 -2.917018979721884 
H -1.39391693 -0.99859027 0.99442428 4.935016033749877 -6.408398684087161 25.378631353130118 
H -1.76626806 0.61980221 0.56156471 -51.483329074851795 49.00094789750052 -7.035871147584443 
H -0.63733083 -1.70049513 -1.10546444 -8.38557029112456 3.0071888121014787 3.615145032814656 
C 0.33589588 0.56518441 1.09610166 32.43579036014221 -101.84866013791185 4.406265544019902 
C -1.02705936 -0.09772091 0.49729376 76.32566811639589 -30.07010820362392 -3.799035045787214 
C -0.65120191 -0.58081241 -0.89640162 -4.433046126535168 -14.648754515672362 27.62374989802471 
O -0.1909725 0.1898187 -1.67445039 15.818376060904578 29.59856765028471 -49.64236680232626 
O 1.42744617 -0.06335232 1.01054121 -70.60600378271283 58.000656094453916 2.3705013332514637 
9
Properties=species:S:1:pos:R:3:forces:R:3 energy=-167308.03440761054
H -0.31435298 -0.59387176 1.4084903 24.199631149240744 5.428254740598844 8.523655594532066 
H 1.05408605 0.7107234 -0.87913243 11.757617266112458 12.212785188261968 -17.875684268446722 
H 1.19597623 -1.08679306 -0.92053898 21.51865814958179 -9.267764230346874 -2.040009450115084 
H -0.79799418 -1.04152791 -2.15524193 -0.75571189475529 -0.6913336701381382 -3.1988174932238174 
C 0.63333353 -0.07668957 0.95278367 -101.06492136272138 -58.966935418265976 -56.038706872191064 
C 0.62598532 -0.23331332 -0.56021724 -36.29942775072437 -15.866343708058537 -14.347330663850041 
C -0.76786535 -0.43824407 -1.21013682 -40.015114992612794 38.198629252309075 50.75573892621543 
O -1.81175159 0.02935291 -0.69185948 53.29485689735989 -27.455740400507537 -30.746384318112977 
O 1.37104503 0.6591213 1.46602683 67.36441253851895 56.408448246147174 64.96754091683431 
9
Properties=species:S:1:pos:R:3:forces:R:3 energy=-167302.99210206085
H -0.80453616 -1.91186011 0.44012964 25.959904228653848 20.135004206194782 -2.8517324161830757 
H 1.46486655 0.49217918 0.62634967 -19.869950671691175 -4.7784176921636465 -12.601541202699494 
H 1.36727433 -0.75676017 -0.67593359 13.482690433579796 -2.1343296561576017 -30.61851367720045 
H -0.79619593 1.604529 -0.1162852 11.026129323696075 -34.149996663538964 -2.11968476623272 
C -0.08385091 -1.0706292 0.83746355 2.291105870900814 40.55840364837345 28.577304176186257 
C 0.78229268 -0.05806141 -0.09701934 -34.521229800371636 -39.73494816887091 32.27891097896794 
C -0.22939303 0.82198835 -0.81308147 7.238137829315374 67.03151581030015 17.749649278514248 
O -0.35176642 1.05867335 -1.99200005 1.9187663630317158 -24.475191058216787 -14.82501258438933 
O -0.07802352 -0.79235549 2.02924925 -7.525554762935856 -22.45204161174154 -15.589379786963384 
9
Properties=species:S:1:pos:R:3:forces:R:3 energy=-167299.76248318222
H 0.51769497 1.04623051 0.99648345 21.8858215485827 -29.089698636221176 11.233815207609736 
H 0.85713715 -0.87693312 -1.09319355 -44.99130154727781 -10.603988889335053 15.601760944510405 
H -0.36022662 -1.53774956 0.26042941 -15.271968695791488 -36.75604830365591 -11.254461537851203 
H -1.50179285 -0.35329652 -1.88784214 -19.672298019652363 3.3923921066835425 -2.0248700728137914 
C 0.82433956 -0.08364917 0.79044968 -16.433980827367996 14.763949915418332 -23.895031668655765 
C -0.02998441 -0.70316046 -0.33339545 30.872153684131025 59.16364415675173 -3.831088974496484 
C -1.14988816 0.18372089 -0.96551514 36.53426656496191 14.36757737239882 -10.594594815004292 
O -1.39584674 1.37091952 -0.74032762 4.3694813751559485 -42.370465090352496 4.897395861048106 
O 1.69333693 -0.80966713 1.23064366 2.7078271030791066 27.132636182491158 19.86707505565329 
9
Properties=species:S:1:pos:R:3:forces:R:3 energy=-167304.64345927656
H 1.73411604 0.90441319 0.08134132 -14.98637674076164 -8.424681040881843 -9.7362584094175 
H -0.79735787 -0.06807173 1.76805512 1.8464538097921037 -11.69011796050079 1.7030916027274545 
H -0.59917884 1.54813046 0.78261659 12.550689638760328 -43.3768654834535 9.43679946306931 
H -1.16018605 -1.23378729 -0.7545682 5.058575029337155 8.808154222556993 7.5594360418778574 
C 1.0830455 0.04423886 0.48059355 -4.265369844732075 43.49432580139838 46.88165326639211 
C -0.37716992 0.3891883 0.86526786 -10.584035078584773 43.4253869090362 -88.67293726954699 
C -1.02737985 -0.10807306 -0.60320745 -8.505705821350453 8.77961625325074 24.014618163737108 
O -1.29689866 0.67231528 -1.49132659 6.7484648863533785 -7.507826738289948 13.538572250398424 
O 1.58997453 -0.98900138 0.81554081 12.13730293536493 -33.507991963116226 -4.72497510923777 
9
Properties=species:S:1:pos:R:3:forces:R:3 energy=-167306.05986307783
H -0.99120804 0.0808782 1.8587031 18.783582064674032 -18.050910672853192 -11.014888925995837 
H 1.19385438 -1.26357436 -0.29725423 -10.556168283990866 34.230308765558604 21.509889002942558 
H -0.14774012 -1.90092512 0.53784886 -16.70855531905435 -4.190862336735301 -3.061761482484717 
H -1.75683424 -0.90706088 -0.97673041 13.648847678622257 5.140104969571594 -6.956629841969844 
C 0.03475038 0.03119375 1.29427697 -10.944202133411045 37.67765419118133 -1.0534051535651678 
C 0.19237844 -0.91818 0.15958136 10.973478869229295 -57.60778290934277 -28.748891295800867 
C -0.68266848 -0.47127171 -1.03473406 -31.383173777573 -15.827168923964738 29.010258112670762 
O -0.35828122 0.33124361 -1.86136804 10.086476425663225 8.004581404541932 -14.264732298852662 
O 0.80737306 0.93985162 1.47601124 16.0997132900194 10.624074326221503 14.580161883055776 
9
Properties=species:S:1:pos:R:3:forces:R:3 energy=-167302.6456166091
H 1.67144409 0.82372996 1.27100509 10.607105227045386 21.295940798082075 13.483966377025881 
H 1.13316377 0.85126319 -0.76942045 49.816453632706995 84.91778708905046 -63.23168389276965 
H 0.77968704 -0.87084984 -0.99690205 5.021280957423186 5.668767708544123 2.4633558644804467 
H -1.41605182 -0.59904677 0.09143994 4.959177137573315 15.69018406248843 -25.482202149156766 
C 1.08759649 -0.03045592 0.92789142 -26.42270883834313 -88.96062338454504 15.625291191537077 
C 0.54537641 0.09530853 -0.48082211 -32.21420072445776 -65.49203668064928 25.997174584146883 
C -0.94416245 0.17902012 -0.67912966 -39.975371014416645 -9.30071938305152 39.87801747813706 
O -1.64399004 0.89450239 -1.37055386 23.784119454529932 -9.365717792076016 4.060468268635713 
O 0.99020639 -1.09044994 1.57020325 4.4241441679387234 45.54641758215675 -12.794388907857686 
9
Properties=species:S:1:pos:R:3:forces:R:3 energy=-167292.6431650108
H 1.51070185 0.95593228 1.0137104 -12.11582653039088 -8.378927321621793 -17.674925951086998 
H -0.60960703 -1.10838273 -0.13736066 14.43040335726604 -27.856857413534293 16.718206716552217 
H -0.73216158 -0.04916178 1.22578628 -28.286359424952288 21.189808628594882 -5.813634722516844 
H -0.12638542 0.15888151 -1.90053978 17.245786800909247 -1.495894277084973 -11.251762609149255 
C 1.10202032 -0.10486971 0.72570179 33.04905431585974 59.83003289535467 17.687219357876575 
C -0.26464147 -0.11828833 0.22748391 8.678075582855787 -53.37608208158536 31.841041814245497 
C -0.73469825 0.40734835 -1.00725591 3.4937928501950046 29.419937939474643 -18.716156279967247 
O -1.81572333 0.88198521 -1.11664361 -63.74709389572596 35.01348901903616 -20.18739259421028 
O 1.7358614 -1.01751657 1.14453234 27.252168129804357 -54.345507388633926 7.39740426825634 
9
Properties=species:S:1:pos:R:3:forces:R:3 energy=-167309.75334974707
H 0.82049809 -2.16310863 0.79407254 1.5204609317063311 -24.073783519033626 4.0963583284305685 
H 1.12035594 -0.65330314 -0.9676312 30.383591855489644 5.996009256191913 -4.960154254115672 
H -0.33145303 -1.21446755 -1.23982362 -16.046496013092373 12.546992248737187 2.4885189870882187 
H -0.90834848 1.34371644 0.22925102 7.930071524903065 -6.8548757237865106 -4.281776864732129 
C 0.17145239 -1.26814659 0.82128966 24.543730328886276 33.335704023263105 -49.232105923209566 
C 0.15360853 -0.51707305 -0.50019138 -3.411136379966345 -52.98694423277086 -3.5130031511491002 
C -0.23233028 0.90156578 -0.57534861 -2.7709625872394748 44.962372257026196 -41.918949497026354 
O 0.15063753 1.59547989 -1.5365606 -15.225221258494425 -19.72461051512088 38.46401718834781 
O -0.26451495 -0.76278839 1.80202283 -26.924038402192704 6.799136205493468 58.85709518636622 
9
Properties=species:S:1:pos:R:3:forces:R:3 energy=-167305.07005055776
H -0.26105648 1.59540362 1.40275891 -6.9429253081348765 -0.45539322814835254 13.972311200415742 
H 1.17461113 1.42358697 -0.70874556 5.3400604860828 38.112016883069124 -9.07811231290913 
H 1.22335222 -0.28386071 -0.35391305 2.4974660068844323 0.3656206458193512 -11.181432748699477 
H -1.57527875 0.83001791 -1.28808012 6.412721001801832 -1.9946672107581855 5.073966986521364 
C 0.23534342 0.63053947 1.10396698 3.225775948896065 3.397130647585553 54.40883616162488 
C 0.59095369 0.62656009 -0.30717271 -14.575024906282124 -67.93234374144795 -21.345185574503166 
C -0.67673257 0.16193666 -1.1188306 36.129050168577244 -60.57766104803563 -29.321470917232347 
O -0.60583731 -0.99538005 -1.5896218 -22.270932349123136 62.019669245123325 19.83707971228083 
O 0.4580784 -0.29443765 1.89109356 -9.816191048702237 27.065628992613807 -22.36599132167765 
9
Properties=species:S:1:pos:R:3:forces:R:3 energy=-167307.53008637752
H -1.10143353 0.63554658 2.07658272 -11.568444420377526 27.122401361038396 -2.8602098508448552 
H -1.43412461 0.67789578 -0.37457067 25.102741785903138 7.779842228157849 9.22119348038575 
H 0.14376188 1.51961943 0.12864372 -10.31941081130001 15.351240832753296 5.708817628570274 
H 0.27629587 -1.19145307 -1.30432595 7.0293574325757495 12.411813392714773 -1.3892972657475327 
C -0.58494113 -0.03103553 1.35916535 2.7242009200898574 -33.39626271828933 58.777955861361626 
C -0.35734432 0.54406893 0.0388113 -6.121324452749131 8.277718681119872 -63.686941937318714 
C 0.3786289 -0.04728714 -1.20551339 -21.850429533627395 -30.59470476222784 19.25774565416821 
O 0.87080353 0.64854017 -2.06135056 3.9392287390154843 1.5242816471183123 3.968954901010377 
O -0.31449418 -1.10154576 1.88370961 11.06408152629088 -8.476330662385337 -28.99821965740619 
9
Properties=species:S:1:pos:R:3:forces:R:3 energy=-167308.32291294326
H -0.72663171 0.0890832 2.40318329 8.399213162265108 -6.201273693528519 17.462972297226813 
H -1.15522332 -1.45095249 0.34483639 -2.119249569908636 -18.810752782313614 3.5919325858284568 
H -1.70635983 0.230452 0.15284172 32.96608360305375 -23.065341142090464 -0.5251064616539288 
H 1.04798834 0.48209239 -0.81152299 -2.618429240200815 -8.326516403006414 12.09534265763279 
C -0.11288399 0.17990459 1.47431201 -14.762351428647584 27.330605448749395 -7.692087913250076 
C -0.73734488 -0.45112772 0.28110786 -15.611564127102225 35.37768430795755 -22.790157138386178 
C 0.17090087 -0.21762557 -0.92476701 -18.53773053037719 -2.3625421023870263 -65.60360465381385 
O -0.09011136 -0.60740619 -2.07298092 4.662691044588824 0.9551468358270611 39.33269039599738 
O 0.76001206 1.01533772 1.31778564 7.621337086328769 -4.897010469207977 24.1280182304186 
9
Properties=species:S:1:pos:R:3:forces:R:3 energy=-167304.95413490178
H -0.18788102 -0.1711094 1.55778362 -1.3248550067938671 -12.522586865778159 15.91908665656695 
H 1.0833832 0.33856793 -1.37888701 12.116610358102648 8.01806656148329 16.58157878721092 
H 0.04705131 -0.9979929 -0.88875316 2.0462646561356306 3.7056670540450756 -3.24075998364026 
H -0.85811876 1.89617228 -0.67136402 -14.367903473186622 3.799745352594097 4.1264378650973335 
C 0.72930525 -0.31855026 0.9393438 36.87121405787571 39.554002549556934 -55.879172437693576 
C 0.3555227 0.04372836 -0.59453404 -14.28681110091836 -39.478507252628376 27.627698682109717 
C -0.96940035 0.77173004 -0.69976233 48.39093309145053 -1.104964652669124 -16.369131831795364 
O -1.95702799 0.13373774 -0.93153501 -44.00770212125985 2.9906632099967707 2.7573481758040446 
O 1.8649581 -0.57385111 1.28501046 -25.43775164722687 -4.962087142421547 8.47691408634024 
9
Properties=species:S:1:pos:R:3:forces:R:3 energy=-167306.097049192
H -1.02347191 0.47731997 2.26667152 -8.718942533583009 1.453421724660723 -5.690928332262033 
H -1.73612268 1.24728142 -0.18840679 7.682666565035243 -13.538446553367487 -10.318676788072196 
H -0.00930407 1.60275608 -0.01061397 7.6077748510193866 23.886462925773404 16.10476963096189 
H -0.62539934 -0.72994423 -1.69416091 -11.587064182450439 -18.580608633599358 -5.030085678693813 
C -0.60932459 0.02140279 1.32437405 56.470163116693776 -33.841040476428965 -31.560789611388262 
C -0.71929974 0.78108359 -0.06595434 -5.043258964699928 -2.1330987739112834 47.00155993315602 
C -0.00352391 0.00702836 -1.15069019 -109.39086738580438 -21.163240308046948 7.93797383635727 
O 1.08944692 0.21556794 -1.49147716 103.77745143207109 22.39446407082634 -22.66324108341612 
O 0.12432922 -0.98685382 1.38707427 -40.797922898281726 41.522086024093575 4.219418093357251 
9
Properties=species:S:1:pos:R:3:forces:R:3 energy=-167298.57189526473
H 0.80263377 -0.02309962 1.20792052 66.3296911813632 8.205745272699572 11.678820643390317 
H -1.67279834 -0.01894404 -0.48191315 -76.46068807239807 -27.564663992738307 -22.09346948622287 
H -0.68473461 1.34336629 -0.07061793 -5.087275456126784 23.42673552169991 8.05934973539785 
H 0.12939809 -0.98457395 -1.9219999 -3.5971596850016447 19.67287314285994 1.0195713074650283 
C -0.22552555 -0.24696496 1.19691151 -26.473461979135433 16.653674335199014 -44.91489316814341 
C -0.744622 0.26447017 -0.17045237 109.88062926534488 17.870977744712963 -11.161451664065122 