9
Properties=species:S:1:pos:R:3:forces:R:3 energy=-167303.4919728342
H -0.06890134 -1.71328219 -0.0349971 2.6314471836498314 8.30826068799479 7.184972728514389 
H -1.45496734 0.26076665 -0.66970089 11.273253243975866 -3.106578403117994 7.569155031175375 
H -0.99811841 0.95251214 0.91972685 -8.980877358734197 44.589433909528594 28.42273477441067 
H 1.23455688 1.70013324 -0.30205747 37.508691293542725 22.590792160756155 26.37632307646527 
C -0.29440718 -0.8895427 0.75715145 0.3238263830337274 -34.35352743050553 -126.37243902768994 
C -0.64229962 0.39985496 0.09462187 32.215234760410354 -5.9321800667193125 -36.36807018782491 
C 0.62588183 0.95037284 -0.74779685 -94.434506147373 -20.31753882571114 -45.638615168525945 
O 0.61019857 0.74816782 -1.95911586 18.86932048380267 -2.3271026545898597 30.042599526986073 
O -0.29585638 -1.16956145 1.8865424 0.593610157692025 -9.451558191814662 108.78333806066797 
9
Properties=species:S:1:pos:R:3:forces:R:3 energy=-167304.50768429364
H 1.69469389 0.26527298 -0.12589349 15.932414099309113 -8.25549995217068 -9.566496268393529 
H -0.83117383 -0.24332037 1.37105497 -4.1878384930666 22.503955671338407 -10.549194470416111 
H -0.20629393 1.43439977 0.92325147 -3.899354320504223 5.911150716279812 -6.647769706364613 
H -1.8021248 -0.57085778 -0.62421614 -24.861460405919697 -20.533991484621936 -10.755367246674375 
C 0.96143134 -0.24490392 0.52989169 13.571687488944354 -28.408119530011952 49.93600218151485 
C -0.36873504 0.40211821 0.55653426 -10.627265370657765 -9.6448707388231 71.52569931253225 
C -1.05649026 0.21474155 -0.67944746 18.116432028959213 56.8451908808754 -106.30235496633058 
O -0.73302591 0.8157388 -1.74816506 -24.571795155594955 -36.281428173058806 57.96139000213953 
O 1.15322215 -1.15070208 1.34536399 20.527180128530556 17.86361261019285 -35.60190765218639 
9
Properties=species:S:1:pos:R:3:forces:R:3 energy=-167310.36813354676
H 2.32822805 -0.52395568 0.80513232 -11.965048198501112 4.485516336202873 0.8934770264802274 
H 0.61027858 -1.50552717 -0.73973423 -5.39861158607721 13.141271209499466 36.78847932345798 
H -0.10982971 -1.30319856 0.93915076 -28.90613116657328 -41.695967707433255 40.154345799151265 
H -0.80998717 1.09781422 -0.48684922 1.106023590863692 13.278941475540678 -4.175772763917964 
C 1.32088664 0.03049223 0.6778798 44.425736057336664 25.86463180831095 3.0850521936599877 
C 0.245904 -0.78264981 0.10776367 -5.834217018421797 5.02258180311125 -100.52193509132756 
C -0.9211282 -0.00280179 -0.61430854 42.0124218410206 15.79854083225895 49.409006706933766 
O -1.85116183 -0.49964043 -1.15759801 -30.29894083426069 -25.681348935714226 -24.17822826517158 
O 1.23919091 1.20722737 0.99636173 -5.141233871207909 -10.214166821776681 -1.4544237434450569 
9
Properties=species:S:1:pos:R:3:forces:R:3 energy=-167307.30065188382
H 0.76272766 -1.20582289 0.31821366 8.821926348191614 3.8685822643462737 19.384283432224418 
H -0.17522712 1.7069278 0.2425551 -10.901740253376213 -3.208433316090284 8.782603336466998 
H 0.84604593 1.12202915 -0.94173617 -21.867855173906438 -27.648692457917825 -0.735287313049528 
H -2.05314402 0.54430168 -0.09866408 1.074106031574776 -19.000905116232996 -11.267601620868014 
C 0.84275987 -0.12801806 0.72304862 17.694673428975182 -17.78508635466932 -11.794525946186303 
C 0.02786039 0.72151798 -0.22498684 61.85646232284466 55.91746734257083 5.366926447713417 
C -1.17115484 0.03523571 -0.66377271 -52.03990485543904 16.812041921786694 -10.844147296787414 
O -1.30615403 -0.87578664 -1.45376634 7.326951082417716 -2.0060190756368 5.642257493227472 
O 1.57069872 0.26729906 1.60837982 -11.964620117103308 -6.948956393977625 -4.534508532741051 
9
Properties=species:S:1:pos:R:3:forces:R:3 energy=-167310.05722777676
H 0.10470848 0.97556536 1.62946514 23.177066829454226 31.961746538573735 8.036387496652473 
H 1.58863629 -1.10693208 0.56751553 -29.50777170439254 17.589296627494644 -9.01474796528678 
H -0.07576198 -1.67929453 0.11077059 9.427274948423428 7.351782175132454 -8.009059064813703 
H 0.81010872 -1.01532683 -1.94707051 6.058832869417039 21.236671090533456 10.199428251989122 
C -0.27829838 0.10141216 1.13152203 -27.35894420011983 -33.01178040290356 7.413193475491141 
C 0.54588488 -0.74057801 0.17909259 13.155421612047935 -19.452764597662632 37.820787534783996 
C 0.68906578 -0.13521337 -1.16452429 -2.1332754612472193 -53.81390381346595 -47.2356991129761 
O 0.55171942 0.99681813 -1.53195405 1.2214798712399009 26.072474220602754 5.227652951617269 
O -1.42291598 -0.23741297 1.39956078 5.95991523517705 2.066478161695107 -4.437944753278463 
9
Properties=species:S:1:pos:R:3:forces:R:3 energy=-167301.3790203848
H -0.83648947 0.56091207 0.92630998 -19.25158887129453 9.991276340404168 -17.7102693473794 
H 0.87050133 1.10642696 -0.94232296 5.131155578133288 -12.970784531816053 8.034285035936941 
H 1.71801181 -0.5375699 -0.55807487 17.082553790567573 0.07402132136768931 10.099643782564106 
H -0.58200909 -1.61066637 -0.88610687 1.0965749687647888 -46.28126495559802 7.383869306831027 
C 0.21464864 0.22499234 0.91682081 -15.636851760919885 34.734383505130936 -3.7731722887619776 
C 0.83947577 0.09629313 -0.44258402 -20.2922262896515 -6.788678449683952 -16.956112064016132 
C -0.38462204 -0.56813631 -1.00498438 -21.925519279758024 67.90392554006739 -53.419613572204184 
O -1.24591156 0.16004592 -1.50126545 3.274331763289112 -22.153077152769757 2.9063015291031733 
O 0.66950944 0.05560785 1.99168493 50.52157247251127 -24.509801617102415 63.43506643210539 
9
Properties=species:S:1:pos:R:3:forces:R:3 energy=-167307.1475063204
H -0.90997411 0.70175982 1.48949756 -4.240216208692676 -1.2477137902527071 19.284859452397555 
H -0.23860713 1.43643753 -0.7997016 29.187534801666715 -13.976310974805752 14.135877426471495 
H 1.19274155 0.10376967 -0.76751978 -7.091116178501073 12.984663381344863 3.8733895828689837 
H -1.85306406 -0.10388786 -0.52057871 -43.14190690129026 3.3309713197564843 14.285607492556112 
C 0.14386474 0.56242005 1.15497619 82.48332612601128 16.522586561787193 10.568606360948122 
C 0.21121235 0.45011706 -0.35648476 -2.2744830314702886 29.02301280384744 6.31576352975179 
C -0.87766376 -0.37175495 -0.87971317 31.909142331127764 -47.53703877150411 -52.951838000687765 
O -0.68035048 -1.20654659 -1.75810813 -15.878973888025332 6.237444792911407 13.778382026463097 
O 1.18651362 0.59086514 1.85677194 -70.95330586500509 -5.337615323084815 -29.29064787076939 
9
Properties=species:S:1:pos:R:3:forces:R:3 energy=-167309.12599751056
H -1.05882009 0.39745551 1.31062908 27.55072822379926 7.6686359304124725 -7.988531316676889 
H -0.34893656 1.6201681 -0.86643165 0.3647929427288599 -19.74550705360317 -9.416508879141809 
H 1.33430831 0.86378295 -0.82305545 -45.36396241265052 -3.2899134518407673 14.494633354252374 
H 0.33693664 -0.89012473 -2.27190123 1.7711778897571653 7.468259447429743 10.911773485251064 
C 0.03262843 0.63784951 0.92432981 -13.784696523535972 -16.991671279739002 28.20904626435938 
C 0.18108667 0.66303316 -0.55870939 60.75720739851467 16.209925869727773 -36.14507654002136 
C -0.16329165 -0.63896831 -1.27932851 -76.02543601472534 -37.432811790595096 26.222303895655283 
O -1.03198542 -1.43341811 -0.81605453 55.87051831569586 44.158335782981936 -28.03512782056725 
O 0.97743382 0.81112082 1.6689652 -11.140329819583988 1.9547453594050623 1.7474875568892072 
9
Properties=species:S:1:pos:R:3:forces:R:3 energy=-167307.63943576306
H 1.10832403 -1.0752862 1.53893983 10.224990996289582 -12.780546818781316 -10.487449954343347 
H 1.44252661 0.94043954 -0.62763488 -5.947634872418987 12.669012048606046 -6.102245777931201 
H 1.69604204 -0.73755249 -0.88696357 -14.42752655540711 2.8052838057897462 10.78502107358543 
H -0.09838093 -0.10415372 -2.54128398 -2.3920678606250534 1.6488497764162044 9.420105474375994 
C 0.72829898 -0.14831089 1.03621891 -4.536214929227034 -20.936226726895583 6.512779395888601 
C 0.91675145 -0.01809961 -0.47449291 14.408686230619539 -7.349518442754593 -16.72061274745566 
C -0.35972685 -0.14361365 -1.41798336 149.51306557638372 21.54055077774318 -25.6374071510133 
O -1.40390264 -0.32696132 -0.98624998 -138.26848667113444 -21.324037641959013 41.39308292408159 
O 0.17756426 0.62126472 1.78760228 -8.574811914480195 23.726632036014276 -9.163273237188106 
9
Properties=species:S:1:pos:R:3:forces:R:3 energy=-167305.88460750738
H -0.32505969 0.83993029 1.10418783 -11.847037659590635 -17.18281140259016 12.382008966530806 
H 1.48803571 -0.95546644 -0.30875968 -21.7703296935751 4.469785234199353 1.4105898684593687 
H -0.17758066 -1.40388689 -0.91509371 8.85441784486706 2.6224385011591975 19.574186743724027 
H 0.72304049 0.24308861 -2.22332348 17.72094410844043 2.4008536087589354 -24.969040462904726 
C -0.10782365 -0.28830506 1.00564736 26.453671811689578 -6.618632897429855 32.042740487695134 
C 0.39654147 -0.61659049 -0.31822829 1.1268632099357465 6.098249561004331 -53.54995664999877 
C 0.20410719 0.52276501 -1.29387786 22.251671057864034 -36.218153947835994 -27.45415377194725 
O -0.50655712 1.48307854 -1.28793722 -22.73430259545162 29.56453102878561 23.291981189612166 
O 0.02886636 -1.11575927 1.89080768 -20.055896898358444 14.863740313948579 17.271644814650294 
9
Properties=species:S:1:pos:R:3:forces:R:3 energy=-167309.37196762188
H -0.88084743 -1.69720479 1.54753412 -6.604446920249988 2.4735954292173985 12.79216312175331 
H -0.55493989 -1.86406773 -0.6470819 0.7984548143781531 17.82900205130722 -13.765453019592574 
H -1.54852672 -0.25661656 -0.83432611 27.66563072574673 -16.865190421093025 9.14252255469454 
H 1.53763735 -0.48162276 -0.58401432 40.83744157047902 -10.316381038526075 3.012691021757467 
C -0.57110411 -0.72453033 1.0736117 1.480103884029125 -14.426089340298695 -33.04237932918871 
C -0.56988959 -0.74744297 -0.43820653 -44.85356013197381 -22.195920867181577 -12.83352218821485 
C 0.63637967 0.02874809 -0.88653693 -37.497115308486315 15.246041904429738 -6.4900389056789285 
O 0.57335912 1.12497029 -1.39447319 8.420407341830082 0.2816870463235578 -5.619813458279436 
O -0.10350777 0.22936543 1.61562194 9.753084024246986 27.973256421642507 46.80383020274919 
9
Properties=species:S:1:pos:R:3:forces:R:3 energy=-167305.52796258254
H 0.71955757 -1.44764846 0.72409357 -18.430870266767414 -16.859621805458428 -19.588349004482964 
H 0.06778667 1.68151013 0.25636693 20.088656390590412 -41.15566139160467 -20.015331146177047 
H 0.68069327 0.43024417 -1.16139248 1.9868407918509614 13.83738966756043 12.120408542914744 
H -2.05008733 0.88640283 -0.19438357 -26.537164285756056 9.311419046354533 15.737748530486563 
C 0.84275808 -0.35231956 0.76890329 -5.432639906828983 -4.0349387273245565 1.2377102039040189 
C 0.11051158 0.58224165 -0.19973762 33.16166106826109 53.33950543140456 33.905558627929615 
C -1.24301316 0.2873551 -0.60980101 2.139217610511477 -28.296506495647613 -40.771890568846835 
O -1.38313546 -0.49142295 -1.53552642 -27.717135677082545 -12.447708195793815 -4.512689425484547 
O 1.63721387 0.00547242 1.58967428 20.7414354610421 26.306121284688512 21.8868354255775 
9
Properties=species:S:1:pos:R:3:forces:R:3 energy=-167305.78664681828
H 1.23305556 0.74344991 0.0580538 12.212946459924298 32.83659431641267 -13.91165526806371 
H 0.56006649 -1.1896128 -1.14455109 4.162491568196613 3.8641342496006676 -29.052039331424872 
H -0.56813974 -1.77677103 -0.07165279 -19.646871644772254 -33.93197397756254 27.20553215968567 
H -2.20509867 -0.13970833 -1.06303149 10.68084906628818 -9.385475942353619 19.196433962777434 
C 0.84780145 -0.1343663 0.54927001 -16.171556258124582 -33.11726037081515 2.1699137741224472 
C -0.16316507 -0.85914839 -0.40140686 49.623674705169506 1.151765451913278 35.77861751872209 
C -1.12004731 0.14191989 -0.77441311 -58.06981317788866 -3.7313673535869354 -59.46914604715314 
O -0.80924497 1.27176447 -1.02961737 13.898136908133049 51.97144740642176 -0.1152867079665522 
O 1.19775311 -0.48358396 1.63989651 3.310142373073849 -9.657863780030137 18.197628753479574 
9
Properties=species:S:1:pos:R:3:forces:R:3 energy=-167310.43625207213
H 0.67414095 1.78512378 0.12217872 6.0734208399316865 26.636071247606623 -3.69819519563077 
H -0.03230464 -1.24742971 0.85369255 -1.6245783912354372 49.51682985723334 -18.697087091717695 
H -0.87813478 0.26825957 1.3379019 -15.066875016685582 2.892343229564243 0.11086596710501707 
H -1.08773124 0.94488522 -1.22880535 0.9262092448281228 18.424376710716512 -10.116519201877546 
C 0.89633852 0.81000749 0.57513029 41.349308340148234 -49.0340797375411 12.561818569282192 
C -0.24927096 -0.11938066 0.51138864 -16.830302380082504 -61.86824819822632 11.358053678656686 
C -1.02178169 -0.06512496 -0.79211061 -26.468680748675748 -38.72208386524517 -1.9287746926645906 
O -1.59935083 -1.01039667 -1.33445938 21.343032123482633 24.151850861812143 18.039671460974 
O 1.96396013 0.43058169 1.04509517 -9.701532825890355 28.002939894079724 -7.6298334941272925 
9
Properties=species:S:1:pos:R:3:forces:R:3 energy=-167302.77713326947
H 1.24974862 -0.03511947 1.62573804 25.87497098201581 7.511020154368304 43.34918367694286 
H 0.90562583 -1.41137411 -0.13453351 -15.674259671654323 12.35391212265387 -6.84022016147221 
H -0.89375108 -0.90097066 -0.06860802 -18.4538301338707 -24.808015451351725 -5.560539007446631 
H -0.53943331 1.31590166 -1.02020859 -13.310037260844338 1.1021898314201988 18.146178349911903 
C 0.18618117 -0.17522691 1.44168195 -19.865074575547762 23.928948522229163 -33.394064206069025 
C 0.14383381 -0.58103571 0.01422886 2.1163561665550565 -24.847446372791577 -37.46913941835612 
C 0.04613826 0.38043716 -1.20645435 -3.180483514023121 36.343683778002635 44.20196688256866 
O 0.48854633 0.30235075 -2.30613015 27.042722487457617 -30.853324031732875 -36.53637614060373 
O -0.81651985 0.04481502 2.09351274 15.449635519911755 -0.730968552797996 14.10301121034534 
9
Properties=species:S:1:pos:R:3:forces:R:3 energy=-167300.6277036818
H 0.86034735 -0.87829933 -0.75814921 9.875600683134348 17.000315915168343 19.590579533871523 
H -0.13694943 0.92494616 1.57595592 -27.66499156820264 -16.141707956561895 47.39130610816741 
H 0.28067568 1.77476694 0.37851273 23.844870252565688 40.051099918091374 -39.09197109519 
H -2.14136453 -0.09419237 0.21968641 -11.115837871688562 4.835130769535906 -3.8100750397305863 
C 0.96460714 -0.38234996 0.30910377 -63.478206601778844 25.372282467246894 -75.08269998197147 
C -0.08650134 0.79508414 0.52546928 -7.630898361427095 -53.30383356268227 -44.151862385888826 
C -1.30368801 0.34908276 -0.3770589 35.95896548422861 -7.54809247774657 -24.642288659349163 
O -1.18860909 0.18599496 -1.61068215 -7.175220536227571 15.524601940653545 63.07923592484635 
O 1.57964062 -0.86665337 1.17801996 47.385718519396065 -25.789795827884284 56.7177744094237 
9
Properties=species:S:1:pos:R:3:forces:R:3 energy=-167302.21780837243
H -0.87108103 -0.42364879 1.89104773 37.421220389865084 10.288735992467876 -9.195538242043659 
H 1.36852903 -0.9445488 -0.31836733 8.498092850231608 -16.084203936551585 5.3857798165325015 
H -0.51395596 -1.54287178 -0.28157353 37.63607456200513 -9.999994496738395 19.586407815429766 
H 0.56816374 1.01277649 -1.24292673 -9.91899699015386 12.462360200644975 -13.809412591609195 
C 0.1517651 -0.16367971 1.3226159 14.890844625609553 47.744954704700795 -4.123627469217012 
C 0.32662511 -0.80723698 -0.01071417 -64.3158895621979 -9.648885928886715 -32.17327685432031 
C -0.18489107 0.18432495 -1.13901115 31.2195020134441 -9.887647439146242 43.01810362656739 
O -1.20125816 -0.05614382 -1.71395621 -17.158027742717284 13.39314197142859 -24.84460040227986 
O 0.94607625 0.76627337 1.58113117 -38.272820146086424 -38.26846225374035 16.156164300940375 
9
Properties=species:S:1:pos:R:3:forces:R:3 energy=-167300.5992985838
H -1.21489623 -1.33359843 -0.2228673 -39.870638113764386 -14.378796425320223 -27.24017592156061 
H 1.596578 -0.54996097 0.74686531 -25.114467184411414 19.623876203037575 -28.604953965528644 
H 1.26097073 -0.9272801 -0.97078769 5.052686242019992 -22.980004716296598 -26.633890522702018 
H 1.33376267 1.55337536 -0.30255214 50.97765940597186 51.42353523440061 16.02137795168437 
C -0.4400119 -1.02153614 0.43046194 36.16851903629058 10.053859231956844 109.72833782579971 
C 0.80880539 -0.46427214 -0.11250658 8.254037834820286 19.449629286815554 12.895219271445756 
C 0.53748117 0.99544831 -0.68798167 -4.177001274522189 -40.36847306298978 17.821676048881642 
O -0.33693017 1.45599638 -1.36642666 -16.329862182017845 -11.7270717017744 -9.79958599658741 
O -0.5310169 -1.00861842 1.69141044 -14.960933764386885 -11.096554049829582 -64.18800469143281 
9
Properties=species:S:1:pos:R:3:forces:R:3 energy=-167301.73708959363
H -2.11963559 -0.22904082 1.58045567 27.47102444797651 15.15879393510884 -12.208022930939029 
H -1.26147867 -0.7072677 -1.02236379 17.984581772614465 26.566368686490463 15.581790532265469 
H -1.18292039 1.08236833 -0.42232508 -8.123838241372331 -3.8529021526477543 -18.49604299148575 
H 1.45771109 0.70593354 0.08036601 -19.104931267541517 -2.2589962086023574 -28.591249431693672 
C -0.98395186 -0.14868858 1.22837707 -25.050048641878682 -36.392234849111496 -69.31965475694251 
C -0.69079236 0.07467141 -0.38394776 -50.17004293818806 15.613463812418795 54.866457547519694 
C 0.71174499 0.39580739 -0.79706276 10.367629852515837 -25.519651563627832 17.169408067301017 
O 1.01041945 0.23551485 -1.96070828 18.73429222705317 9.890755476109247 -1.3097334168082728 
O -0.09190431 -0.53070842 1.91153296 27.891331602999564 0.7944040496831414 42.307046194962 
9
Properties=species:S:1:pos:R:3:forces:R:3 energy=-167303.48765981913
H 1.39841545 0.88351619 1.41586755 9.290473889209336 22.55408507026023 19.5267752466409 
H 1.12648856 0.85465239 -0.87319105 -32.83659313059163 -21.434488571697734 -0.515764563449215 
H 0.47409297 -0.92175862 -0.92112726 7.200839014117217 16.6829724157961 13.493601173029095 
H -1.77233718 0.08610164 0.48839603 37.28789260049633 12.902111263368298 -41.3968787372516 
C 1.03412325 -0.0472551 0.97881232 -17.813046829125902 -19.871055856906555 -25.9231176881478 
C 0.41837349 0.0749738 -0.35982466 35.72025140681095 21.22015497499712 -43.11204436987501 
C -1.03179284 0.38030668 -0.48934229 -76.62704927866054 15.378908409411379 -15.112613320272029 
O -1.55069095 0.78073858 -1.5453708 23.41037593454172 -15.857759549502568 51.61873086523096 
O 1.15749251 -1.1438512 1.4411187 14.366855207381473 -31.57492934154732 41.42131257991574 
9
Properties=species:S:1:pos:R:3:forces:R:3 energy=-167311.5002452733
H -1.19559072 -1.31645551 1.24111724 -3.8893104162399523 -10.600734996383324 2.4682853225709516 
H 1.46384236 -0.15620574 -0.11413864 -31.83057812933075 -7.717045888816794 0.21505220425482297 
H 0.54519806 -1.62862591 -0.67591498 -4.12953167220778 1.7958987011145748 2.1442288902541935 
H -1.50615209 -0.21508173 -1.41605324 8.845291766092819 10.103999303268083 -7.692992694708593 
C -0.22808552 -0.76630013 1.16989088 24.477523568215346 55.05912500787881 12.672777030428836 
C 0.41130094 -0.62341808 -0.19707851 14.421595078532274 3.742342127372747 -27.448401354050446 
C -0.44984259 0.21581961 -1.28828652 16.572072059880732 -31.20855214190027 48.59898183660443 
O 0.02533299 1.18301989 -1.80978523 -7.214119024017521 8.925035859831151 -15.004553005763146 
O 0.21836303 -0.09280346 2.10740237 -17.252945602567262 -30.10006915818603 -15.95337704377001 
9
Properties=species:S:1:pos:R:3:forces:R:3 energy=-167307.21879912194
H 0.63777283 -0.76705939 2.26756485 -4.053585763281542 -25.996120389236502 30.295582589056867 
H 1.41484529 -0.71260984 -0.43944908 27.050274981703087 9.866262342392776 6.939653627867448 
H 0.25704255 -1.85453533 -0.00501886 -5.9128820150077726 26.04834987723176 11.287351470398288 
H -0.08568807 1.09496509 -0.90866571 -1.5825979545455051 47.93040407234957 -0.13530218141125486 
C 0.41774783 -0.11617177 1.43855347 27.438148745281982 65.99595133438032 -24.17970698401663 
C 0.45370132 -0.72082828 0.07965223 -43.334143908609484 -49.25753704137386 -46.43395245937272 
C -0.3181528 0.06112112 -1.04463758 -18.584544373652854 -56.59773611652363 -25.943686940021237 
O -0.94967432 -0.38936191 -2.01231358 28.7814563133812 13.575834305144136 49.034530349538784 
O 0.3941098 1.11292855 1.59919824 -9.80212602526912 -31.565408384364574 -0.8644706578605895 
9
Properties=species:S:1:pos:R:3:forces:R:3 energy=-167299.4877035531
H -0.14219402 1.67717208 1.24036965 -30.855771566372947 83.60856120365013 -1.0565120047071266 
H 1.24913137 0.41731788 -0.64294744 16.142254620064353 19.182768561037005 -30.791143133514975 
H 0.89113022 -0.82944071 0.38320883 10.500701504538533 -45.272100413637496 2.9744281340484666 
H -1.48519351 -1.2017255 -0.55488374 13.738584686319864 10.693763843306149 2.723191786379244 
C 0.32520278 0.76727816 1.16027381 3.21614945364018 -92.88742471899269 46.148911911129524 
C 0.42746818 0.00225816 -0.09469842 -8.281593944299996 -6.253465235250285 -27.723113400978203 
C -0.68074878 -0.52759199 -1.03269987 -14.008745552070964 3.419847421374294 -15.578218839273262 
O -0.73329039 -0.3505031 -2.24367305 8.355946109739671 1.1315045135119397 27.915075297814617 
O 0.6468888 0.16493469 2.19217068 1.1924758742623558 26.376546010822018 -4.612619750898288 
9
Properties=species:S:1:pos:R:3:forces:R:3 energy=-167304.6542081819
H -1.48391322 -1.32641243 0.77161761 -26.887296922886424 -25.279220417334766 -14.154267139261378 
H 1.10893756 0.38107399 0.79106925 -0.7351639876606869 -18.46567174284154 -8.3814851376192 
H 1.14639395 -1.17497767 -0.29737857 -5.285978745612835 6.5008488503392705 9.473565844617568 
H -0.79511981 1.1453034 -0.95361312 4.216543663140415 9.725302608768434 10.377327497034514 
C -0.67565232 -0.6633713 0.99991486 72.59724397064649 84.16483934315467 86.20591840385374 
C 0.53263533 -0.33041722 0.12065216 0.9131924872001531 1.5170540678395954 -5.085782507429178 
C 0.14582139 0.52525584 -1.07050311 -46.5556236278539 -11.549864976220196 23.85026929579063 
O 0.62611592 0.42855684 -2.14995622 34.136397667777146 0.3225872000400835 -50.59436053999055 
O -0.62682747 -0.01535861 2.09273571 -32.39931331892931 -46.935876119566615 -51.6911869028172 
9
Properties=species:S:1:pos:R:3:forces:R:3 energy=-167297.0992949058
H 1.27525963 -0.52277799 1.45212675 28.999476627715534 28.63493033576436 -4.045503207028263 
H 0.13166016 -0.98152956 -1.0686242 18.472282695176048 -21.63256100438702 -14.981729508080216 
H -1.18289538 -0.28373826 -0.46750999 -66.96765934694348 -10.849300875055716 9.795570806523793 
H 0.41513722 1.80061638 0.26695864 -8.426325774673408 -25.299825243839603 -35.93533918569717 
C 0.28394408 -0.68865483 1.04521326 -48.642514513044304 -110.60060644286241 76.94879335993652 
C -0.15615277 -0.30739386 -0.27677219 26.751992369833076 15.169958440262098 -14.791355425625127 
C 0.15744366 1.04904645 -0.67488776 24.879350888048982 93.84739428901607 -32.16875294702772 
O 0.09355224 1.49166295 -1.83662765 4.508866338430472 -20.297320576867477 53.84323746869444 
O -0.34804301 -1.53219238 1.75487047 20.42453071545708 51.0273310779697 -38.66492136169626 
9
Properties=species:S:1:pos:R:3:forces:R:3 energy=-167308.74557582062
H -0.65593932 -0.10261302 1.52170162 20.818563633551747 1.5054021902362038 -30.291627875866627 
H -0.01568577 1.69056132 -0.30684043 -11.537858538123883 31.457087189225447 13.41445829056136 
H 1.54830524 0.93843599 -0.68065324 -31.072533724576893 -17.795744514235704 -1.6198872831752886 
H -0.08438365 -0.28643894 -2.24690183 -3.511318099441954 -6.22261965818745 -33.018009520861085 
C 0.37752445 0.00936448 0.95569308 2.29666381414599 13.311542067752407 44.06389343737162 
C 0.45028195 0.72605067 -0.39205127 8.10198118784234 -14.148268070586886 2.2477119355233954 
C -0.54957196 0.01630164 -1.30818608 -3.42284873444311 -23.9227336341242 35.49219193149652 
O -1.64001865 -0.37836442 -0.89086423 23.48882985498141 18.629617431632187 -20.702227473959 
O 1.38113587 -0.32701273 1.55768731 -5.161478208114596 -2.8142830017120075 -9.586503441090905 
9
Properties=species:S:1:pos:R:3:forces:R:3 energy=-167310.88378749607
H 2.36045925 -0.60575879 0.3978595 -38.186327544772176 -2.116981094246588 4.4529785925066125 
H 1.0369015 -0.12906736 -1.43545852 -36.255694670527646 -12.053465387373906 13.652652978360635 
H -0.06919181 -1.5602058 -0.96683599 9.966184367059189 4.122888702705012 5.757193198164245 
H -1.62977576 -0.01134365 0.35598166 -3.2407670985665393 -3.020153393603401 17.426441894066816 
C 1.17163738 -0.5472282 0.598714 21.42320192697668 -0.07451343710200718 27.68584304548516 
C 0.2918581 -0.54708515 -0.63365577 50.19731326479556 1.4270775242905875 -19.41014856089175 
C -0.9403534 0.28324048 -0.45912784 1.5407183126445296 -24.55437188695801 -0.2208390109619827 
O -1.24618548 1.11016564 -1.25792799 -15.731776735696142 42.76314380081201 -29.091274592392043 
O 0.74636846 -0.35594952 1.73267346 10.287148178086547 -6.493624828523693 -20.252846358516653 
9
Properties=species:S:1:pos:R:3:forces:R:3 energy=-167309.53100516225
H -1.3056261 0.52835183 1.48398873 24.84196787955652 -4.5748821819129075 11.524606987928697 
H -0.01772255 -1.68694431 -0.40798136 -17.046603253899345 29.48565258441126 17.179904955205068 
H -1.50698598 -0.56250967 -0.533651 -21.051024876590958 -2.204491130018773 -5.533428766680426 
H 1.42320538 0.06477874 -0.94627472 21.816066811340495 5.500072806462045 6.207225329361149 
C -0.35150842 -0.11897847 1.28005673 -54.71014261716359 -12.80945476425409 -59.91701049747695 
C -0.47814363 -0.62949842 -0.21118706 21.174172392275086 -30.181310943906162 28.883146397228018 
C 0.33981479 0.23920834 -1.08920983 26.03154679300216 -42.55760781045574 25.783986490577234 
O -0.08505663 0.90953027 -1.95649751 -28.308470244186243 55.619305684447575 -58.41740341469523 
O 0.54132366 -0.42283012 1.99721178 27.252487115665883 1.7227133835847028 34.288972518552434 
9
Properties=species:S:1:pos:R:3:forces:R:3 energy=-167304.42186792023
H 1.44002757 0.98997272 1.66577692 0.1731595183223356 16.989975555642435 -3.399088438133406 
H 0.13244545 2.11383223 -0.35013925 24.997373285169925 -3.6534197787341216 -5.756629933167134 
H 1.20040856 0.51574114 -0.97201435 -8.911711974552128 30.514954739384265 -2.3046835218838018 
H -1.9146007 0.8206525 -0.71148398 23.569734867524318 -0.8867237756201302 -7.111965284141501 
C 0.76369713 0.3974984 0.9976612 6.854380050589053 21.903518741881403 -13.444522411554518 
C 0.34218361 1.01694474 -0.41367617 18.565651872739235 7.183440647722248 27.862998780734365 
C -0.85844344 0.32453508 -0.84781569 -41.44212611092477 -15.206905066609428 13.305391213983958 
O -0.77746346 -0.85732507 -1.08421003 -11.22579312822983 -23.345266058338847 -19.280084151043102 
O 0.53754308 -0.72779909 1.30544028 -12.580667194817087 -33.49957500532782 10.128583745205137 
9
Properties=species:S:1:pos:R:3:forces:R:3 energy=-167302.54828332659
H 1.26994284 -0.9477918 1.86495718 23.253584304124903 -24.45995325776863 27.26547778523083 
H 1.57663135 0.51916838 -0.02045868 31.09149025982703 48.322947599209776 5.209637958278095 
H 1.49071258 -1.05519617 -0.40010345 -7.401012721700988 -12.72069250145675 -18.769681870366384 
H -1.40893529 0.27392962 -0.50731681 20.673722707642053 -8.04719625549177 0.27727934949353467 
C 0.38946436 -0.55902759 1.35742019 152.55496337051767 -5.321242691895113 -110.25145922302173 
C 0.83624054 -0.22105696 -0.10373045 -67.42172919880389 -34.5175834006535 9.946535312317872 
C -0.35967089 0.26137956 -1.00307621 1.122530219831656 0.08390395396962969 17.13170844458913 
O -0.25413858 0.72353921 -2.11281001 7.76914137903379 -1.390797329371417 -10.237960321075688 
O -0.58057202 -0.25787984 1.86563925 -161.6426903204722 38.050613883457764 79.42846256455435 
9
Properties=species:S:1:pos:R:3:forces:R:3 energy=-167308.63427716162
H -0.32582396 -2.00017389 0.53752297 -3.366133285428759 13.515679975094793 26.29447770783245 
H 1.20938282 0.78455796 0.48040154 -11.863023713119164 -1.4229603536169693 -3.6425707019792437 
H 1.53674797 -0.70780013 -0.32132373 7.371440716442147 -11.188226317475154 -13.68160835667527 
H -1.17882128 -0.12692674 -1.36398552 5.491814748693877 -14.894980769419915 20.026840725254857 
C -0.10996434 -0.96626191 1.05845531 18.461081429570346 13.422368902762887 -62.08632898943403 
C 0.69371703 -0.08596297 -0.00597737 -4.073572777021128 -4.639523658802394 43.669439552805436 
C -0.16257019 0.33780506 -1.15719248 -23.383409178122147 22.449789737574136 -48.62849099334781 
O 0.08449254 1.2049097 -1.9923764 17.38886203928063 -6.801194790830279 22.506884649323386 
O -0.47898427 -0.53938045 2.11302826 -6.027058794474755 -10.440952725287108 15.541356406220238 
9
Properties=species:S:1:pos:R:3:forces:R:3 energy=-167299.21898552997
H 1.33262981 0.49921021 1.69726206 49.08498229178527 11.799942776726938 7.381958949125038 
H 1.99838813 -0.28489445 -0.5689441 -22.195165499174927 -21.989929521543438 -1.0710928602954946 
H 0.69960089 -1.77193751 -0.50892172 18.924641407266286 40.64616389238646 16.545502553511756 
H 0.1173917 -0.37919816 -2.44214754 -7.020499349358027 7.237048059773594 -6.916066461430539 
C 0.67695253 -0.14808257 1.1416398 -53.600263922077566 1.821939331296794 -32.25146633666662 
C 0.9348865 -0.62994644 -0.28159505 5.467195917946471 -7.1810358026398475 -38.12102675138081 
C -0.10881092 0.05669728 -1.43067363 39.8589328742139 -22.286653964558283 69.64359853625984 
O -0.94424043 0.82692598 -1.06630798 -13.762739861038071 8.870108628954997 -22.478395298680045 
O -0.44549649 -0.16335976 1.60950678 -16.757083859563327 -18.917584586218272 7.2669864837358205 
9
Properties=species:S:1:pos:R:3:forces:R:3 energy=-167304.86915238242
H 1.79699125 0.39702984 1.87762434 -18.225359178653125 3.93967342190794 -5.319287272989353 
H -0.85986396 1.08825596 1.40749808 5.965102016434656 -6.675312771812811 -5.527714295057105 
H 0.1796379 1.54381143 0.03599541 -13.181777670628536 -10.699051419352712 6.080222709454692 
H -1.31321819 -1.22868253 -0.3360294 -3.466709883312869 -8.084505743079344 14.236440980324096 
C 1.07122838 0.03346259 1.06854509 8.106945034743193 -58.354716170890455 -43.06098884471584 