18
Properties=species:S:1:pos:R:3:forces:R:3 energy=-241637.87028439922
H -1.09197222 -2.55249687 0.59016761 14.812337343222767 -5.819141675457018 -1.388265601437035 
H -3.33087772 -1.55691301 -0.02745631 11.565909134980004 5.303832467289678 -0.6519857561715453 
H -3.39850279 1.01660484 -0.28689404 9.975279614486222 -21.131915659281304 -2.789646383648903 
H -1.61726319 2.42819169 -0.27706582 10.230129158884278 4.3706932842655215 -0.711556662265987 
H 0.91783347 2.59347308 -0.39619105 29.07696410400229 -14.822001784752143 14.746498187076266 
H 3.4142331 1.28830671 -0.03504824 -28.01731678844809 15.37919300646255 2.7919575488686275 
H 3.55319483 -0.96057885 0.0762347 -34.21914781786848 5.175200529265262 6.187147007400979 
H 1.21017978 -2.43977902 0.29654038 15.104622072239335 19.429413409613986 1.1259062523511811 
C -1.11248255 -1.50828663 0.26589489 -52.49371382666921 24.057014823614377 -19.89928314109861 
C -2.3751464 -0.98336217 -0.05703068 21.240730155975797 42.34083260822028 10.931160473541096 
C -2.39892223 0.48157052 -0.24281308 -89.30760055187054 -29.94717532154922 4.88893739952307 
C -1.38138452 1.35932311 -0.21498432 61.9758780596953 -17.735626944638803 -11.276081427171885 
C -0.04694642 0.75624597 -0.17423121 -6.696345679715452 22.114124117211666 37.368380204030856 
C 1.18632283 1.52732613 -0.10236457 -80.65536756708221 24.712514167546846 -33.43930446481592 
C 2.3575651 0.88298708 0.03797683 83.99876391976443 -24.62586740949655 -6.2088582049422465 
C 2.48252753 -0.54466777 0.13315957 -7.019632514172999 -21.75262419952907 2.143912276034765 
C 1.3084139 -1.31753695 0.22690296 -4.010795410816817 16.509731075821556 -4.670249467939528 
C 0.00886044 -0.63822582 0.13255108 44.439307779214424 -43.5581964946076 0.8513305748437786 
18
Properties=species:S:1:pos:R:3:forces:R:3 energy=-241636.93327273006
H -1.14552544 -2.46643354 0.06410533 2.213828284939301 -53.54959853204271 1.1994864482895542 
H -3.23801091 -1.44119873 0.15760959 -8.46349889284063 9.40139914736668 9.411435936704672 
H -3.42128719 1.04876036 0.1360413 30.65802997775565 -8.369245092776719 -1.839872502983756 
H -1.51331002 2.4614289 -0.28488004 18.84695827050685 -13.287914583399916 3.2887134009416594 
H 1.23225199 2.57800514 -0.16926013 -15.268415975936026 -34.35206887061826 -5.9303681321601855 
H 3.18081393 1.42886069 0.18484167 23.589718323800767 10.84850637495453 -0.8440555627231997 
H 3.39140757 -1.18227237 0.23961841 7.576058881308384 4.901273495870321 1.11526113681631 
H 1.38942055 -2.38180947 0.18474981 -10.158677511724463 -14.096818852840261 -3.274053095343173 
C -1.17883682 -1.42294303 0.05518975 -3.3003617210819116 -27.099673914860233 1.6403830141438438 
C -2.3509579 -0.79163852 0.18156911 -39.309633291568275 -32.964182731916125 -8.147928195932977 
C -2.37266207 0.56817023 0.08832817 -78.62333394932621 65.16319664623073 -2.4915736621041296 
C -1.2823662 1.3719612 -0.13947043 4.801362143593325 0.046870762685900604 3.8089734119783425 
C 0.00216482 0.72005933 -0.13303422 -87.33974594079588 -16.063958413823855 -18.156425029575132 
C 1.16469693 1.42366429 -0.19677132 1.0922064040293018 89.95553910081023 10.283718783619927 
C 2.31526798 0.81155442 0.03262226 88.53786513741876 -57.58526891095299 2.7847501285477017 
C 2.4640515 -0.62490095 0.094402 -36.18864834855576 36.58991596085542 -0.4799100782857556 
C 1.26300338 -1.30746917 0.03800594 34.77977436315074 -42.65324309203887 2.7044273541386503 
C -0.01392702 -0.75226281 -0.06382736 66.55651621696816 83.1152703206751 4.927036643927647 
18
Properties=species:S:1:pos:R:3:forces:R:3 energy=-241644.66945296552
H -1.01438904 -2.4534367 0.40934743 5.99156005562526 -39.38961336369487 11.313177466971082 
H -3.25364252 -1.5580554 0.12713097 -5.341657787032502 -1.1940470871490334 -8.851300321335682 
H -3.32406412 0.93853246 -0.76769334 1.1775119984759526 -12.187569889528149 12.495211001097525 
H -1.52510165 2.31362496 -0.49986027 4.900049728550283 1.9720666474320057 0.05826531712219112 
H 1.21947801 2.65573012 0.05593238 -10.269225678789002 6.562847132115998 -4.337027824753992 
H 3.30750573 1.29095693 -0.39617771 2.2149536291124763 16.46723243533428 10.93032802716642 
H 3.46771372 -1.05285292 -0.00231083 -28.04644411081447 12.133440716216322 -4.781337183580251 
H 1.23081324 -2.461058 0.27325253 11.09728332977321 11.85308060364385 5.717420760262988 
C -1.12640753 -1.41421561 0.25742803 -3.256652357306111 4.496501782378104 -4.381771224482383 
C -2.36911705 -0.92897044 -0.01376911 -11.41689174734436 11.303993282965559 4.585453776542894 
C -2.41606874 0.4354846 -0.35168538 -50.62497251030722 5.584987079963335 -13.178138385836677 
C -1.33892078 1.25196522 -0.26594992 15.959858741610446 49.43665649627615 -9.596154838588767 
C -0.02098694 0.82484535 -0.02231188 -34.527218196656705 -63.455158983918125 32.304161852333166 
C 1.1404204 1.56500387 0.06815517 65.91125525195159 -4.308451909174251 -23.637476080629483 
C 2.35915387 0.8478611 -0.07483595 -13.078218732812354 -4.399686608853648 3.0147828100835796 
C 2.42735345 -0.56683858 0.01957628 31.31151224008794 -25.00579142877938 8.637854904598933 
C 1.29842544 -1.34718254 0.24741511 -20.354880330466973 24.01739298498603 -10.240917758765784 
C 0.03706661 -0.64054812 0.20319593 38.352177662163584 6.112121295606864 -10.052532298205758 
18
Properties=species:S:1:pos:R:3:forces:R:3 energy=-241640.37265933488
H -1.15248167 -2.56542635 0.20163659 3.540559260628809 0.7827545437218428 0.18077011779908783 
H -3.23199774 -1.37943591 0.39160714 -14.367616504493357 -19.282824583481677 -2.3039056232772657 
H -3.54718987 0.96457784 -0.06648168 -4.86618267946084 3.0089153675452547 1.1081307948634098 
H -1.51902521 2.38350223 -0.63416779 14.498959229430184 0.8409688705390324 8.68529723302927 
H 1.11043702 2.53190842 -0.15034939 -10.591288745926512 -8.561000656751037 -10.197902100302214 
H 3.28297808 1.61332 -0.02522976 3.13122806521261 -4.306801246277455 -4.434804699147199 
H 3.439996 -1.11297439 0.40143322 6.013392206913276 9.512357608513328 -13.94788328685683 
H 1.49058256 -2.39228909 0.18527819 -8.230817087086761 3.3050872179524102 10.386036166800372 
C -1.14652151 -1.46346321 0.11223264 9.24754598150321 -69.9581351972149 16.781701504489686 
C -2.32764358 -0.83725335 0.16669241 -67.13210070893159 35.46580029828453 4.18219635652712 
C -2.54093121 0.54444553 -0.01390688 71.64671946525888 33.30048632400164 -16.822826964205056 
C -1.34306484 1.36054817 -0.25505653 -74.64821159305272 -47.897521254728765 11.09300132997412 
C -0.11169837 0.69043043 -0.10072757 46.88265765681854 -2.5879109497468265 -7.6211390542139945 
C 1.11922094 1.415415 -0.20502061 38.96861013171749 24.45168452761104 13.182994323022298 
C 2.44592724 0.90528529 -0.10637062 -43.22326845493608 -42.808920050671944 12.387174403009574 
C 2.54721103 -0.54459744 0.08003601 -41.44032722039715 18.204498214802232 17.209952474703577 
C 1.33049332 -1.29343909 0.19013649 59.78277436918655 -11.996770097317349 -16.43365946986438 
C 0.03764812 -0.78099525 0.10654622 10.787368999257597 78.52733224903969 -23.43513469217262 
18
Properties=species:S:1:pos:R:3:forces:R:3 energy=-241640.39784767813
H -0.87740198 -2.58372233 0.23535453 -20.30898905596552 -8.222510410655685 7.18224059682314 
H -3.24769028 -1.44875508 -0.08091378 23.56423621533147 6.609207991751882 20.244415170875687 
H -3.48757433 0.87529489 -0.38171935 -3.886718211432196 4.329957959674466 9.430733988416211 
H -1.39761019 2.27673043 -0.70858245 -0.4252152683347239 6.699798790603002 -3.7941779227805488 
H 0.78575264 2.46852114 -0.569502 18.882687058639373 -8.17969159848584 4.958792931554234 
H 3.05238028 1.73553922 -0.03844 23.605870392275808 0.8984930495071302 -0.7707896093621622 
H 3.51189951 -0.70189158 0.37160691 36.109475820561855 -19.863439328324574 12.91867006846231 
H 1.66845057 -2.24825769 0.75297917 -14.945725609464892 -20.30394694487559 -0.17887161830356268 
C -1.09688672 -1.50988138 0.22402379 24.114012498037805 -0.40824142587441975 -11.643172491088958 
C -2.2889759 -0.85005854 0.11868502 -68.83054033569343 -56.87238294329382 -14.70180222018974 
C -2.48280068 0.52114847 -0.11937894 -22.386944779570175 -14.475775242149103 -20.087889164373294 
C -1.38220211 1.22172624 -0.42526824 47.77481486447396 15.036981653923126 12.084403458478373 
C -0.09383885 0.60099578 -0.21793793 9.000235887319112 46.63673853072204 -19.63639017254181 
C 1.05982721 1.41279983 -0.30316817 -59.928766727332444 41.41467316787611 -12.012367201542608 
C 2.29358418 0.96527007 -0.01775392 24.250794584115155 4.108517737441883 -2.9811066781826314 
C 2.50925216 -0.38719544 0.28727997 -57.89635127519946 -8.023925703274289 -0.6656736885118618 
C 1.38620031 -1.26175662 0.40852589 46.98314057483997 46.902062432424266 -20.119000365350562 
C 0.09516013 -0.74438915 0.08022363 -5.6760154467806325 -36.286517716990595 39.77198610343882 
18
Properties=species:S:1:pos:R:3:forces:R:3 energy=-241640.6080462002
H -1.12845623 -2.68924256 -0.18246652 1.5854972870043176 18.766529958024655 -6.591234502149337 
H -3.31678065 -1.46879009 0.1314745 8.400527051984685 8.447608890816872 -3.082726798587705 
H -3.38896261 0.83383072 0.46060479 -15.158123946217536 29.10270472145973 1.4905924711858518 
H -1.16160392 2.31952272 0.15275373 -14.675622848945073 52.201755198440445 3.477041942091452 
H 0.81478985 2.57355513 0.05290012 11.376248916794935 -11.275179017355462 -0.019613480109922483 
H 3.26318347 1.59770246 0.18824198 -29.667950039718296 -13.347581540999128 -3.7776048878339785 
H 3.40275096 -0.82926212 0.2800029 32.26189681859206 -13.92706619838466 1.1980373749706714 
H 1.52946726 -2.3102477 -0.10833296 12.811438642864966 -49.00160839982344 -1.3744294414658997 
C -1.14921432 -1.56138848 -0.1937783 -31.51615412137511 -5.645620481715485 9.111533493285073 
C -2.38092456 -0.8760159 -0.00208826 35.364295202520964 -16.32847832885652 8.103467021613664 
C -2.38362562 0.55116841 0.19820333 -68.02530736821322 -68.00484128277083 -13.97329424606333 
C -1.29778626 1.29339044 0.00056803 39.47206824434562 -18.98399412228816 20.50664407964642 
C -0.05005469 0.63334229 -0.00355573 -18.916720122675336 -12.061881159341265 -36.569970450852466 
C 1.06031613 1.480464 0.03111648 -11.248570378891944 38.489594162500836 -0.26350840967995975 
C 2.30757595 0.96819466 0.08124992 59.32323076737527 26.67762360289875 12.449310240027701 
C 2.44042963 -0.41889354 0.09662964 13.839120966288391 -1.852494382203225 -6.505268405379759 
C 1.40923658 -1.27021148 -0.11545603 -58.51765984089677 11.75327716108209 2.507144678266366 
C 0.0428481 -0.802322 -0.17467587 33.29178595498311 24.9896488468727 13.313879321035156 
18
Properties=species:S:1:pos:R:3:forces:R:3 energy=-241638.3528673982
H -1.30314096 -2.45633535 -0.12178956 13.98169697399918 -18.59456574731724 13.89782385137676 
H -3.25653482 -1.29773205 -0.15353791 -72.83981670974961 -46.4528437744653 -4.782295326985862 
H -3.34144693 1.16137986 -0.50470795 -52.204481401026456 18.642433785503286 -12.290534731000006 
H -1.35770841 2.27880565 -0.87928684 3.378463452670777 22.372591601622744 12.013771213661721 
H 1.36020243 2.51978747 -0.05928912 -5.340456550312347 8.80023056632395 -3.640494329326736 
H 3.38747854 1.28457806 -0.06786087 -5.929462164880623 -8.452623728022727 3.6451996672394436 
H 3.3839201 -1.22917721 0.26022155 11.870723249174409 -3.578966818505488 8.49857310775546 
H 1.35123947 -2.43606318 0.61824938 -16.410253734047593 -4.946772263605364 -7.115023516620551 
C -1.24028659 -1.39384183 0.0874753 41.337888883469965 -20.009027321493594 -18.575457426973152 
C -2.39545801 -0.76759059 -0.06316707 -17.23755601702515 79.63878215701239 2.932817673525058 
C -2.47796458 0.63906463 -0.25502349 55.08402962149844 -28.36219149505806 11.638723290522304 
C -1.3077296 1.35172723 -0.30839847 42.27476340279075 4.13675806566545 -11.281527903238684 
C 0.01721597 0.76423459 -0.06000561 -29.592338532327187 -4.244400971165947 -2.065586424268102 
C 1.29556283 1.43253272 -0.00572917 -65.5166792278176 15.382837034538596 -15.211637678406207 
C 2.42898215 0.71938197 0.02583243 64.32288827801462 -12.546501318823916 11.727682399613373 
C 2.45072613 -0.6739561 0.27411437 -34.61569586240288 -9.877167152736838 -20.73028874320454 
C 1.23297812 -1.38620755 0.31275886 16.312622715643112 35.41460247459977 -0.6736198753447875 
C -0.02281693 -0.67067946 0.06839283 51.12366243650717 -27.323175094071715 32.01187593749555 
18
Properties=species:S:1:pos:R:3:forces:R:3 energy=-241636.8100074447
H -0.88492854 -2.55338941 0.22108009 -10.928446129165545 -9.646256963626515 -0.3558803117429967 
H -3.36952347 -1.48746934 -0.29667671 14.268288576171264 -10.884640713884972 -3.7941885951699676 
H -3.4426349 0.77447784 -0.18291582 -26.268452493323835 24.459782499537926 -0.8308253573068511 
H -1.454401 2.34945425 -0.02478947 -5.991654921308984 -23.885788193597914 -5.817716318559065 
H 1.01851584 2.62474682 -0.23361567 3.602184008775874 -0.05111244456940681 -7.956522449167391 
H 3.39147692 1.36924031 -0.32627332 6.946761439220462 19.457056084030096 0.8334116330093748 
H 3.39182799 -0.82536854 -0.06223637 43.43919223766013 -37.88920110842255 7.208449613593969 
H 1.44837182 -2.2427468 0.59831918 2.4384192336925654 -30.432885250573648 2.845492625836134 
C -1.12780045 -1.49221655 0.1028791 -43.584398396452166 -41.44805521615752 -13.182300617710064 
C -2.39298625 -0.96590979 -0.23397936 20.835804285747525 -59.49220315158224 30.784125444561496 
C -2.45686079 0.37729806 -0.12697256 7.01588294802381 65.25350521967277 -13.23814211661311 
C -1.34349152 1.21624544 -0.07877262 3.9294646885181987 54.50798147350581 4.137079423169065 
C -0.0085681 0.74084428 -0.03181448 -36.83663907362147 -16.498089870607583 0.06875509009996465 
C 1.17889608 1.53343641 -0.19852268 -11.88459854124008 9.55382577051115 23.230794009431275 
C 2.4249805 0.93850258 -0.09690422 -32.757106360020394 -0.8197035417112668 -18.65383189740272 
C 2.43061213 -0.44929816 0.10133185 -21.39428805239867 9.579892488756393 10.53540455746579 
C 1.31451464 -1.20477466 0.38391335 -11.804831916901861 3.7316981976589223 -15.214291545908385 
C -0.02757116 -0.69487828 0.20466453 98.97441965244423 44.50419590688159 -0.5998131875865236 
18
Properties=species:S:1:pos:R:3:forces:R:3 energy=-241637.3528788582
H -0.7914613 -2.50830782 0.88659185 -20.843425557613696 27.72160503660699 -20.146436706904566 
H -3.15856643 -1.67315815 0.18054122 -26.168724943309055 -9.00121537550356 0.7492574707989232 
H -3.60555499 0.86308265 -0.47929137 47.11623475746255 -24.77209218856757 -0.03731304505071468 
H -1.58405747 2.28755182 -0.27021144 -4.539528113231093 57.18867461939777 -9.562300833530838 
H 1.02224736 2.57268267 -0.44083484 -6.153617917309803 20.326694550011545 -1.395063913496901 
H 3.29469854 1.53083282 -0.22646428 -26.709848289838718 -9.857635494279128 8.706682329782737 
H 3.63454115 -0.67385261 0.3545904 -46.24617413918853 -11.88409693893739 -9.411527244925258 
H 1.51079005 -2.39173121 0.50174077 -7.479403793625211 31.30946788460369 2.455855546361023 
C -1.05163929 -1.49426722 0.39760355 -21.261894690014604 8.280006129918664 -16.272410338133586 
C -2.34062088 -0.99607971 0.0410769 46.17594151606456 13.264379593089055 2.136876799765589 
C -2.51573869 0.39572538 -0.39599993 -21.49210643052851 1.364179204339529 25.77219824355349 
C -1.41438527 1.26505137 -0.35785084 5.054613201220635 -79.31274777518998 5.182098450293037 
C -0.06753567 0.73081449 -0.16693496 -56.267495627449115 0.16252744681897613 1.1506318069927768 
C 1.04998952 1.52818378 -0.18240536 80.96666575075915 -13.091660014374987 -6.5195267176434655 
C 2.34695157 0.91634652 -0.04736367 -16.52647605481987 73.06942842481399 -21.9847700141699 
C 2.50031087 -0.42887163 0.17469768 48.09567906653341 -37.79129735117736 30.32719064905263 
C 1.38647869 -1.26046942 0.36996913 2.3362560072481724 3.3280198111716235 -24.260645199548836 
C 0.07912179 -0.65702941 0.12473867 23.94330644346078 -50.30423519109974 33.10920271680386 
18
Properties=species:S:1:pos:R:3:forces:R:3 energy=-241646.26850971568
H -1.1982733 -2.43586202 0.36706237 -4.456661752677193 -76.26231206952086 10.813369311524234 
H -3.36755354 -1.30472588 0.21264477 7.41935855911215 9.213414494320388 1.9786657415560516 
H -3.46739844 1.12072551 0.02022737 -11.427921068898314 17.394329860126266 -1.164307881122628 
H -1.41535908 2.4098218 -0.0596302 13.228497834041526 55.02364524216607 -2.24010252186769 
H 1.04206181 2.49843695 -0.20579631 16.45074477950306 -24.64027039192793 6.0479055284730885 
H 3.36376465 1.3276042 0.0418295 -5.180227224681584 5.80647829250092 3.6315793266987795 
H 3.477233 -1.04428432 0.14300909 13.421759390744963 -17.238515346251805 -1.1666226038054919 
H 1.39083022 -2.43868775 -0.2444684 -0.7201254051483509 -8.051887363551918 10.70514061042674 
C -1.25709767 -1.44103864 0.13877517 64.88522121978288 87.18560224877601 -22.582338442515304 
C -2.42188562 -0.71301919 0.1179822 -24.898073816552944 -38.3365011079282 -1.2250314052743156 
C -2.48335256 0.68206439 -0.02434526 26.669158026447434 -13.253471225281851 4.5357512731978336 
C -1.28168412 1.37440723 -0.07992445 -17.73276911591662 -47.971994373915194 -9.867628408238398 
C -0.02667757 0.68457898 -0.14936882 -5.00210860274258 -12.135297711975216 25.18941700365855 
C 1.19274109 1.36800987 -0.08370904 -18.761351477514374 80.23979658131908 -17.125323984074505 
C 2.40828096 0.77764629 0.04831815 25.94291022723575 -7.789627623433974 1.8288941717348042 
C 2.48249349 -0.6330022 0.08734213 5.167094256591052 21.726495818589413 -7.214570821836256 
C 1.33527158 -1.36327606 -0.04100152 -10.525063012118837 -26.45062543742099 -2.7286358908039507 
C 0.06657922 -0.74753444 -0.03708604 -74.4804451888501 -4.459259886590182 0.5838389922684603 
18
Properties=species:S:1:pos:R:3:forces:R:3 energy=-241644.04703058588
H -1.33168603 -2.52962608 0.27556246 10.377242117919163 33.60910692375547 2.021901962734279 
H -3.40101027 -1.34808816 -0.14478917 11.117525295037801 13.360330303070578 6.420188116931953 
H -3.45353766 1.19763076 -0.29419344 15.630949929571207 -2.7762169602967344 -10.736313474098424 
H -1.10752193 2.47247546 -0.37651459 -18.350744338652092 -8.752880731935244 -9.338611108772952 
H 1.29744339 2.45963528 -0.7179441 -13.96593741229054 -17.733433175702686 19.244264054689992 
H 3.30857842 1.31325784 -0.28528559 -6.770829471291295 -14.15124329559268 16.001070766262217 
H 3.43345115 -1.18281228 0.40984618 -4.521712337827739 14.433950148016269 2.278215996124825 
H 1.31672198 -2.49261095 0.38615642 8.566726986584824 -14.745328967524369 7.83533153821007 
C -1.23069777 -1.37906214 0.18008563 -31.45670772649056 -48.475993220940545 -13.319809612088946 
C -2.47348297 -0.72309169 -0.06236911 40.93245903929691 -12.481409229936743 -2.194297812302637 
C -2.45163661 0.68425195 -0.31107212 -58.332984814391395 -7.2578698915299515 10.59366750294589 
C -1.28404175 1.37064125 -0.3740537 64.81577953929695 -1.839557074585374 33.149622612996524 
C -0.01943047 0.67723651 -0.06492183 -5.4233988034132254 24.687537218843385 -31.55379208139258 
C 1.18814821 1.45100773 -0.20736483 27.76059127515439 -36.76367313298521 -0.6655728937229052 
C 2.39031296 0.74180237 0.03566773 7.065635255852826 44.36659441846108 -24.39875896266146 
C 2.46218013 -0.63298035 0.3531986 36.10678875007038 -9.032777188478512 -7.507340551660862 
C 1.3489056 -1.41069446 0.36127361 -63.49902369025102 13.253187814051726 -8.658261698988998 
C 0.06451117 -0.76986836 0.15230831 -20.052360779997638 30.299677229130598 10.828495644794012 
18
Properties=species:S:1:pos:R:3:forces:R:3 energy=-241644.70029423537
H -1.07284626 -2.65622362 -0.0209972 -3.0328321922331036 42.518991548074865 -11.394552064648423 
H -3.24317156 -1.50841543 0.09417344 -20.03602728090247 -8.822797926660828 1.230766035855427 
H -3.41868043 1.04242287 0.11853238 -31.031181773041634 9.810991223413119 6.6015855340646645 
H -1.50232189 2.32626336 0.36934764 12.157438176735335 14.965061607449922 -3.7809251867643154 
H 1.03391643 2.59479631 0.08379407 10.764436406038381 9.598128044810226 14.282526729477178 
H 3.32872486 1.39923658 0.43964273 -30.65550062146336 -14.44208013711141 -13.511137094665463 
H 3.46312469 -1.05208755 -0.15022422 -13.988708733847423 16.59791821541132 3.500482066718588 
H 1.46422145 -2.38452276 -0.55242504 -10.175274263091962 27.795511333333163 18.57550130235187 
C -1.17657128 -1.49772317 -0.13788632 57.98889986459842 -32.07317339903376 15.491057434888761 
C -2.36853421 -0.88243962 0.02578103 -36.29804034009991 7.798556855914489 -9.440742318049086 
C -2.49511823 0.52017485 0.07847959 66.30217301815698 -0.047307144831030684 1.7956556078000325 
C -1.29992873 1.28198865 0.13039954 -58.25660608078317 5.138006066319202 -9.958229879478937 
C -0.02294939 0.74819484 -0.06329627 7.584784152568893 -7.267405078565251 32.80004375429489 
C 1.18567098 1.51781437 0.17542479 -60.86864493136414 -14.08820386293708 -30.766157884064185 
C 2.34645317 0.82935499 0.1851687 90.43904103104597 61.53306046374561 22.57681607390153 
C 2.47410164 -0.51461809 -0.07154707 -0.2925550962151805 -66.59581551227186 -1.9670909423206853 
C 1.32519305 -1.29534832 -0.20195605 9.249449224282921 -22.086354559943576 -29.242799991541137 
C 0.02724638 -0.68738098 -0.152562 10.149149439615439 -30.333086551296077 -6.79279917782071 
18
Properties=species:S:1:pos:R:3:forces:R:3 energy=-241640.3740985862
H -1.07291238 -2.50443126 0.14131542 -2.0431601766357654 -54.55051094534029 1.064172408667834 
H -3.35483291 -1.3510142 -0.36112329 38.379788319411425 12.630812009412512 7.199416028861358 
H -3.41312068 1.04276051 -0.43142871 15.665937579549642 0.04000367300533464 8.489924914862977 
H -1.29542253 2.4922224 0.16820404 -5.143349375954952 1.8238579897501102 -5.776766360358585 
H 1.22482823 2.47147828 0.17565513 -9.518816775753882 14.270220278656092 6.852512382440739 
H 3.20304846 1.44957498 -0.44789588 -17.073597284202986 -19.46024712846636 26.100081320387464 
H 3.33020923 -1.13174957 -0.67498407 -8.467575745598666 7.0236631199102195 7.647678915056811 
H 1.48155262 -2.37798867 -0.03516781 -18.94598500028312 -10.430854273254694 4.151767002651623 
C -1.18010881 -1.46859404 0.10263321 28.858767102332017 40.266180582051305 -4.682984000158419 
C -2.33968252 -0.81166939 -0.17386118 -62.29427456815689 -0.7035594851280598 -2.258623860793741 
C -2.40538773 0.61521837 -0.17366877 -37.92613706238046 2.0211940275694893 -14.204381122509592 
C -1.29979674 1.40029973 0.05321682 -5.85022916001335 -6.3981709775606745 6.8321826664187 
C -0.08278871 0.71269359 0.18042745 40.820304084714294 8.317053551054952 12.5334833753749 
C 1.16798567 1.38679474 0.22601062 -0.44272273026597514 21.177649219583564 -8.905654800646355 
C 2.3664522 0.77368972 -0.0260872 40.33293163458261 20.387575788362426 -53.18396128472871 
C 2.4106626 -0.61871596 -0.3019931 59.08557799979427 39.6784580258554 13.683802125611384 
C 1.3249292 -1.29676752 0.06152087 -42.844939364960865 -56.13375398653511 -11.007464500423392 
C 0.02907009 -0.7005736 0.17483036 -12.5925182903563 -19.959571468926217 5.464813603463953 
18
Properties=species:S:1:pos:R:3:forces:R:3 energy=-241633.1318584392
H -0.96044931 -2.51507518 0.24764055 -18.576691866682605 28.374704278741245 3.4619998021159764 
H -3.2383247 -1.46149362 0.16802583 -35.570769177325054 -16.208559803882146 -2.9258367450240232 
H -3.33430849 1.19819732 -0.50348721 -38.94317189862692 3.2391069491013704 5.412016107187401 
H -1.54302635 2.41011695 -0.16186165 22.85427448237309 10.497905338510769 -8.552255226532738 
H 1.32651913 2.52513658 -0.22552611 -16.476927708210866 3.7232705674810975 -2.8175819558635076 
H 3.23596697 1.38056324 0.22005294 35.458290493596735 19.34681267297451 -1.6060665388777589 
H 3.52621064 -1.07049487 0.26555685 -35.81204462820327 8.462777913644327 23.02467815258325 
H 1.366086 -2.41009007 0.5289417 -13.137416105277135 -10.200784831266374 -11.518290119213729 
C -1.15124065 -1.38835734 0.13398 -4.805213690352516 -38.601238028212386 -9.537480413205516 
C -2.41788318 -0.81667249 -0.01131483 36.525190290671624 18.50438049926404 -0.5526234390391013 
C -2.49960783 0.59505731 -0.23400842 50.05492105934698 -16.601542084529573 7.310221519093002 
C -1.30713446 1.34237047 -0.20664062 -34.68267340675407 -22.034254326442397 -15.664326048747384 
C -0.04901333 0.68454104 -0.23574325 38.46862884639784 107.38986789065764 27.786220425433452 
C 1.20657093 1.4374175 -0.1265082 -26.736899239552596 -2.16195098579487 -17.298413538955096 
C 2.37791271 0.77959602 0.06969642 0.15354366657032 -21.9917118105764 27.2346808268309 
C 2.46520007 -0.6096799 0.38827078 10.635371643331975 -23.455081387996625 -64.44244749921191 
C 1.29117962 -1.37404705 0.18084893 35.67863145971916 39.72774904929731 33.55918385769576 
C 0.05224613 -0.65499728 -0.00379219 -5.087044221022707 -88.01144952932945 7.1263208337310235 
18
Properties=species:S:1:pos:R:3:forces:R:3 energy=-241645.03152085486
H -1.05261937 -2.53089991 0.10998139 0.18483866980979785 -16.902306619850012 1.2879819013514222 
H -3.34814436 -1.40794738 0.11951294 20.452008560747714 8.963728014759004 -2.430729184205694 
H -3.42218142 1.18117908 -0.0770754 -23.241800800385345 -4.623580294831541 3.1440361183363876 
H -1.40718129 2.49308629 -0.27078703 2.4735811993648396 4.426833610072297 7.061975812103174 
H 1.11043524 2.56789083 -0.09555229 13.04431492327047 -16.588641537364165 3.148096369599772 
H 3.38023067 1.30584574 0.10939379 31.114650530687186 20.860110059738645 -0.8461022898495434 
H 3.33231491 -1.30513315 -0.00909287 14.302331126775595 9.027513328852882 5.753412800667847 
H 1.42722222 -2.42710888 -0.0389097 -13.969880267270316 -62.52141740380232 -0.8362410020264409 
C -1.12794178 -1.45604601 0.08144948 -63.97957174025982 36.65473886836503 -3.3039927051264453 
C -2.38834559 -0.80435273 0.06099178 -19.97835843176669 -26.481928741407792 9.896062025292554 
C -2.51655856 0.6006553 0.01644853 68.7210416202551 33.07968881677629 -10.668924449844084 
C -1.32361179 1.42039642 -0.05873703 -11.311941841440579 -56.27736284437745 -10.96020241679213 
C -0.04105765 0.74143359 -0.09030689 9.92566011861442 43.84761627997571 21.01495101453389 
C 1.23932638 1.44755466 -0.0382782 -29.284552750590127 21.282679761318516 -15.533224045483005 
C 2.45750111 0.80074972 -0.00021367 -38.29203044704052 -59.65892959072704 13.747254223991183 
C 2.43980582 -0.67481222 0.06500614 -16.69264397225176 16.44385515922261 -26.98476192634439 
C 1.25037875 -1.4066045 -0.04214695 29.964599776007212 110.50801042062156 20.832687948037194 
C 0.00882688 -0.65864471 0.01863742 26.567756097114923 -62.04060728734224 -14.322279008420645 
18
Properties=species:S:1:pos:R:3:forces:R:3 energy=-241638.67185433497
H -1.25379208 -2.52478379 0.47670816 17.14600944641051 -10.583337815809399 2.9268269055978915 
H -3.22712181 -1.58380573 -0.26691608 11.332086569379353 22.462423475004073 21.4393279073887 
H -3.45293671 0.88629705 -0.78739693 26.630927155906686 -3.843253126791984 19.872483585446602 
H -1.27599711 2.25002302 -0.73509433 -9.722000097153794 27.394520017337346 -4.5536749583164235 
H 1.05620294 2.609975 -0.26020862 0.8078666760246136 16.448554568030083 -2.4384156762294253 
H 3.43078951 1.41206809 -0.26407367 -29.718154145366046 -13.19864123173151 -2.9879595380106387 
H 3.49230658 -0.86397371 -0.06343203 -0.6241355630722926 -26.615933634594125 12.96875084872122 
H 1.29920887 -2.47469039 0.37949292 12.75161515688761 33.61143469046985 3.36534590025385 
C -1.1692627 -1.44816977 0.32900296 -25.354383684370283 0.16752449670913414 -2.849442595742189 
C -2.39687237 -0.85894047 0.04246718 -20.377259145257447 -18.494596289808964 -25.680655230401992 
C -2.48504393 0.50830069 -0.29926242 -9.935696907952412 5.985001279416798 -26.009084970738424 
C -1.29503668 1.25476334 -0.33631603 -51.32540498533553 10.7997039097838 -4.686599568529347 
C -0.0558315 0.74922013 -0.04661739 47.938497300992275 -45.7905342602625 30.974627595689615 
C 1.15250029 1.54731607 -0.08377603 42.81863548250631 -60.31028686174392 -27.708909636482634 
C 2.43433133 0.84775058 -0.19680356 -50.35503813637601 44.899551015443166 44.071359366680696 
C 2.46075212 -0.5441918 0.13931534 23.291276811910514 16.085284219524993 -37.136084975938154 
C 1.33518848 -1.32498512 0.31111783 -33.526432666211115 -20.872267097107862 4.350220083896851 
C 0.01352137 -0.70681993 0.26855838 48.221591916898085 21.85485146030998 -5.91811622910724 
18
Properties=species:S:1:pos:R:3:forces:R:3 energy=-241640.04097206195
H -0.91618394 -2.49842036 0.35758778 5.118887073585691 -49.98634977150923 10.419377897166193 
H -3.2694382 -1.71361864 0.32288046 11.844013815921935 20.47305332686082 -9.657228179949188 
H -3.41527744 0.73055882 -0.42307078 -69.91668837999592 34.31157663934175 -11.015509110403181 
H -1.68221052 2.24877608 -0.77245578 21.6601775907401 -36.523204040418655 16.09721832253746 
H 0.95423195 2.50172053 -0.68789128 15.73740227074097 8.332759750816495 -1.4778010195567264 
H 3.22505421 1.59963687 0.15461274 23.232346249181205 21.112216800056032 -4.936111732396888 
H 3.42396634 -0.75089696 0.69916438 50.39276147550882 -24.262621963233435 10.714667496714714 
H 1.46334417 -2.2714687 0.24236366 0.8435338014627181 -20.94556506763716 11.6163895369316 
C -1.10507078 -1.47814763 0.21826764 -3.089327078532797 33.53318473125017 -0.5549037729116152 
C -2.41751014 -0.99612511 0.12651734 36.225284289788895 -32.12744724251328 15.577847677285693 
C -2.49425443 0.36675354 -0.1671581 31.79304689320747 -14.91296848887502 -2.640513971371746 
C -1.39862689 1.17655497 -0.38898075 -3.33290065059922 52.57690628801091 -13.126392712828414 
C -0.05890409 0.72824543 -0.18245142 17.585543503882313 3.5429973087005138 -16.29344206021518 
C 1.18580132 1.47324681 -0.38387942 -98.27138904350292 25.21115191762075 4.556973912467924 
C 2.35997154 0.98744494 0.0329843 33.77567683452213 -35.097997741739526 14.673395877019654 
C 2.51229334 -0.39077439 0.35590721 -84.46726758540343 11.566786642554447 -18.758733184643596 
C 1.35346838 -1.19892742 0.2623325 55.27703859831896 6.970579840761448 8.16184736337737 
C 0.08100997 -0.65537157 0.13547447 -44.408139658826926 -3.7750601158680834 -13.357081153403033 
18