18
Properties=species:S:1:pos:R:3:forces:R:3 energy=-241629.98793881564
H -0.84295984 -2.42125368 0.67296941 -5.654651694806003 -12.344723195364164 -11.250344367177583 
H -3.18464777 -1.71419493 -0.25475633 6.441892199546942 11.226667078341137 17.30061442281749 
H -3.55069635 0.69888542 -0.36353746 5.464266939961495 16.80627764567942 -3.8016509670159015 
H -1.62292307 2.33411368 -0.32316927 12.875265460695474 25.894044913549553 -1.6572868931624014 
H 1.06380309 2.66106164 -0.12679498 0.244818684165299 -4.208046069520845 -3.114844761633488 
H 3.21431354 1.51359069 -0.29721477 13.090647323201235 -1.6543828174194029 15.017746450727053 
H 3.54308435 -0.81134785 0.12807956 -20.86735068304887 -23.418817794572103 3.2907577564259105 
H 1.33078774 -2.3661085 0.51600063 -3.0155500363006973 18.139913657322982 -10.153063834890098 
C -1.07752258 -1.44519018 0.23486494 -4.967201588595313 -22.355886940540007 2.692922518345031 
C -2.34287934 -1.00436934 -0.03884263 -21.335300570259133 18.664479384579685 -15.707186364653854 
C -2.49625633 0.40527529 -0.23488609 40.191625641212674 6.951942291372835 -3.7221132061396656 
C -1.3225114 1.30701063 -0.23011205 -82.27449355314563 -68.60454537482106 2.9005562261326423 
C -0.03972489 0.71954944 -0.09685793 -10.41390177557323 125.19577251962018 -9.265970083103443 
C 1.16386179 1.56294692 -0.06105191 -49.01851583630514 -11.790099276219534 -2.8166724311208045 
C 2.3415252 0.92675009 0.01612411 30.638888454422254 -46.44336787848232 -26.158900415938394 
C 2.44515671 -0.58490551 0.10661457 60.64403619529518 105.18373677013149 -1.004546954805251 
C 1.31344319 -1.26692346 0.24849954 -28.426210415898108 -43.585332823436836 7.225836121778473 
C 0.01904813 -0.61131099 0.05976149 56.381736441252606 -93.65763090439995 40.224149155056374 
18
Properties=species:S:1:pos:R:3:forces:R:3 energy=-241640.4631179863
H -1.08850937 -2.54686529 0.18266873 -5.953841459776625 25.444533357792086 -14.21149842043098 
H -3.38254993 -1.34915122 -0.16219474 9.009085669789508 -3.1546041555032334 14.186604479200774 
H -3.47043069 1.1013147 -0.0594749 -8.25482640581624 9.965455087115561 1.3465258864195524 
H -1.33390307 2.33764016 0.01698949 -1.4731597159805332 40.70605734180557 -14.88187270357136 
H 1.25969 2.57005847 0.1527575 -7.148088950682526 -23.65470368879375 -21.11281919714768 
H 3.4245744 1.33349485 0.20959627 -13.447708712706596 -4.353163291734386 -10.250876283914701 
H 3.45011944 -1.08946832 0.60159236 -13.07255050820985 -0.5945979466238005 -4.228593976615447 
H 1.24481705 -2.34709335 0.64072254 -2.488166798237394 -37.22398158937152 5.732971617467433 
C -1.17901603 -1.42817017 -0.04512284 -21.2038048744073 -31.178322005960595 34.188004599722966 
C -2.42773062 -0.79865457 -0.00540414 -1.0325453755353224 -1.529826546331976 -34.169865095173904 
C -2.49445224 0.62829894 -0.11047827 3.4918208297945936 -34.901363709979705 -8.809657843644016 
C -1.32797099 1.32157734 -0.30623795 15.190148229400645 -0.08943343750968825 36.764024136014996 
C -0.04489442 0.70514819 -0.20081112 44.47438436577134 41.7406767183513 4.259592524593288 
C 1.23108303 1.45455371 -0.09666867 5.196858364859436 -5.749849408422966 7.576099199223966 
C 2.48077643 0.76156416 0.0018185 -29.59855697789529 25.518734923958853 28.584336094992292 
C 2.47711795 -0.61942454 0.31645067 -19.412239163396816 -21.840180482322072 -10.45135000422325 
C 1.24839711 -1.34391277 0.30367679 45.6428224615991 53.382853119761165 -3.5715471362172306 
C 0.02798662 -0.68181362 0.01001052 0.08036664978777366 -32.48828428623085 -10.95007906251774 
18
Properties=species:S:1:pos:R:3:forces:R:3 energy=-241636.82061303692
H -1.109807 -2.6099787 -0.10067842 2.5137663029902964 21.60919084320163 15.355655644509596 
H -3.32610848 -1.35412584 0.49609087 -5.602323783663883 -3.1070634039260323 -1.1034112270981444 
H -3.30998724 1.0937815 0.40236499 -15.580948599322417 12.267942468421154 -12.0047067975819 
H -1.20232826 2.49981477 -0.48965437 -14.05951410853687 -5.714155009100792 12.403952584997198 
H 1.26299673 2.59348019 -0.11771147 -7.403933398938639 4.1305716372656045 3.0283960356979636 
H 3.34328473 1.19048868 0.45407621 -2.6771487267838348 10.144497463649827 -15.902850394797596 
H 3.31494452 -1.18680925 0.07221295 -9.230297028560107 12.03616662994685 14.548379507366166 
H 1.10746373 -2.51548752 0.2064562 20.060411319082657 25.93523677924353 -16.85838855157002 
C -1.16856404 -1.49027641 0.08037879 -11.800152667052176 6.948448862569703 -27.456049899800686 
C -2.39461313 -0.84666439 0.23942118 32.04578686196371 53.4588322316767 -11.426608364999785 
C -2.39242703 0.62758061 0.05459609 3.9189666147930997 -20.305705517487624 19.860199665225398 
C -1.25341183 1.42242978 -0.21927669 -19.280448198104395 -30.422937397814145 0.42816440527749156 
C -0.01129534 0.7480176 -0.18263221 18.397567668496126 16.268352458512293 -6.397789143183687 
C 1.23017913 1.49856779 -0.07937666 -16.602228674915526 -10.93346452383454 -11.24002653825156 
C 2.38487018 0.78844973 0.07320039 13.61471144815525 -22.745424411047207 23.972346015069718 
C 2.32745781 -0.63967221 0.11272815 104.77427039111596 -3.681562869631872 -15.678254702760148 
C 1.25664272 -1.40677576 -0.03796704 -83.23579835766739 -19.936581956296767 13.344504335383332 
C 0.01441782 -0.67741757 -0.11849312 -9.852688248872926 -45.95234428534831 15.126487426516654 
18
Properties=species:S:1:pos:R:3:forces:R:3 energy=-241638.8374611434
H -0.94197589 -2.52314311 -0.30499885 -2.451449035352047 -25.370292659530783 -8.086701883657554 
H -3.29662275 -1.41669114 -0.03609753 1.374610872086022 -8.26502209517447 8.021902692568876 
H -3.34558757 1.14031229 0.29669794 -5.9357671753851236 -21.973144224629532 -3.6975323216657485 
H -1.42669594 2.39434365 -0.00011253 -10.734897603768845 92.88246205791287 0.5987637359603276 
H 1.22114101 2.58356219 0.00518682 -3.583489539977027 -6.458191309831759 -0.9451076748469763 
H 3.29439743 1.3853185 0.11840173 0.5222012000898835 -9.200383506839858 5.736321561923933 
H 3.38464089 -1.20023911 0.12078282 -18.261436598173336 17.878695068083907 2.529598199782774 
H 1.38826745 -2.39565627 -0.4973347 -12.976241680272272 -18.70635665483857 -0.5370156624244217 
C -1.13097203 -1.47455255 -0.21362453 30.356683204301355 43.278034414149914 26.137722837868072 
C -2.32631636 -0.90740906 0.06104612 -46.98049856554826 46.29603791419593 -13.117560717673717 
C -2.41301398 0.54872502 0.15460049 -22.4948865119744 2.4758117287533987 -1.4132188337195681 
C -1.33841022 1.39088189 0.03096341 15.580167143252744 -96.08625644206906 16.011993363921977 
C -0.0593586 0.79853304 0.05127973 22.878321747376063 -7.387320046076486 -17.866063702296067 
C 1.17411285 1.47352471 0.02437808 18.032950227282157 18.39115119081325 11.063818274018546 
C 2.37458471 0.76839091 0.12550293 -1.4883880298603172 30.035184587982005 1.3385334525658112 
C 2.3965234 -0.63006936 0.11538136 38.730142705077505 -38.95382175744598 -31.960481267517064 
C 1.25940627 -1.35501945 -0.24872339 15.305209631368351 64.94482414304557 42.86400143828415 
C 0.04015908 -0.6103035 -0.07578974 -17.873231990522456 -83.7814088510372 -36.67897349309335 
18
Properties=species:S:1:pos:R:3:forces:R:3 energy=-241639.2757481018
H -1.01407358 -2.52693063 -0.01976674 -3.086931720018768 -9.161426913818628 -4.883776706328488 
H -3.44149555 -1.2998407 -0.16059042 33.51155416954006 -12.759332480258552 8.338950922500528 
H -3.48412706 1.11435773 0.17803372 -2.073387940933349 -8.703318155473676 -10.297231214445354 
H -1.38916795 2.34701967 0.15977889 -6.818302631068843 59.03621582708956 10.023362286281696 
H 1.18467003 2.56670136 0.04983911 -0.2622134930971281 -30.07981296306888 11.126975102957752 
H 3.39321651 1.37118912 0.12019727 4.501329259858606 8.385805083691778 -1.9309174712957047 
H 3.42884985 -1.2786515 0.0710467 -13.242377869391383 19.867884971428083 -4.665227515807393 
H 1.27485139 -2.28815955 -0.337186 0.12661485642423598 -70.39150179942361 -5.617690838606114 
C -1.13273924 -1.44308441 -0.06228105 -28.579046147303636 10.245046787649867 -15.535770003269946 
C -2.40100721 -0.84332283 -0.05398866 -25.934360457490133 -1.5896061569306104 -6.532879062627608 
C -2.53158655 0.57728439 0.01737477 16.080591925643798 -1.8523864724879888 18.83528504812462 
C -1.38131683 1.30738845 0.16700209 39.80913787682721 -26.49461346914273 -18.32895487692175 
C -0.05369494 0.73722657 0.07203376 8.15223272633195 10.356119087616984 -4.0569961846114175 
C 1.20114939 1.41653154 0.13150866 6.608153796841501 55.26032326484681 -21.25088315577635 
C 2.46897027 0.79943526 0.0366876 -22.789412442768946 -19.514345470430975 19.064288436992094 
C 2.50958519 -0.62393504 0.00295671 -24.072605998734407 -12.056978975134832 -12.373079734050293 
C 1.25009051 -1.27289582 -0.17323779 123.46371605200972 17.670310735573832 9.332481599783339 
C 0.07452524 -0.65510526 -0.14315445 -105.39469196267048 11.781614726631474 28.752064552921436 
18
Properties=species:S:1:pos:R:3:forces:R:3 energy=-241642.74419998596
H -1.26653999 -2.385534 0.60524233 2.1679927440270377 -8.118628929514841 4.243173646382769 
H -3.34665781 -1.31289038 -0.08271051 -21.813610975953093 -17.163126773217446 0.7244050333053467 
H -3.31855551 1.20366679 -0.4780607 -29.381575442797732 6.349976838586826 -11.782598958100111 
H -1.22895201 2.43721555 -0.70029423 0.18095866334548916 -2.4641693377183795 -4.055499678450672 
H 1.08026129 2.26641207 -0.80313924 3.451622682137625 75.56394766639774 -32.95052207345988 
H 3.34344963 1.29953724 -0.33744057 -1.5749766826793339 -6.07337815037401 3.6445498373059344 
H 3.44774745 -1.03128501 0.56516791 -5.629470784882533 -4.743558110858242 5.29483208554637 
H 1.07395949 -2.35009722 1.04957597 23.33536208095807 7.615086623592409 -5.27545814128785 
C -1.21275562 -1.32588668 0.32681805 -69.30601662908614 -53.83473276014859 1.649056109278304 
C -2.42838437 -0.7715698 -0.09570326 47.484971740992236 46.45456202916175 6.709945861298324 
C -2.41809142 0.62893464 -0.42736563 10.071078539373785 -11.671959482814986 10.398643816167281 
C -1.24300196 1.35285207 -0.50273477 32.36286829488467 -34.3272626801455 26.269046589668154 
C 0.01433301 0.672484 -0.1401478 -35.308526038701764 -7.672804091391093 -21.08724340881571 
C 1.22259244 1.31631538 -0.46301476 -29.836710161957935 -42.576821668872974 42.78008799774614 
C 2.39974656 0.76062715 -0.12025072 45.61332753470828 -50.174117419304004 9.496799636382605 
C 2.44109858 -0.60399109 0.41866116 -17.834248123617154 14.172304663200437 -6.1357404792120285 
C 1.23073437 -1.31553081 0.64739448 42.55656191629269 -12.026235378681998 11.61063000410851 
C 0.01180376 -0.72489482 0.37163846 3.460389457134762 100.69091459046082 -41.53410787786349 
18
Properties=species:S:1:pos:R:3:forces:R:3 energy=-241642.85624617693
H -1.03217079 -2.48684781 0.38797824 1.1249730111875471 -41.327243767935094 4.0469522803471465 
H -3.27749303 -1.41647918 0.4445913 6.572326585562111 1.602586154106137 -22.091774947947354 
H -3.39701437 1.02084821 -0.13790045 -44.91742133861466 15.137968545889343 1.4513429803661222 
H -1.43720995 2.43219782 -0.31274907 1.1920643943592033 -9.473421174449888 4.40511174014161 
H 1.16597312 2.54923801 -0.30848329 -9.519927890074497 0.6547510908520978 0.9818610123637197 
H 3.22543509 1.51421465 -0.43773644 -8.982267141000753 -19.92432056667545 15.598180950770871 
H 3.44986541 -0.8293909 0.23664572 56.367905024565665 -37.73847020937464 0.9504758867247041 
H 1.43743438 -2.40445602 0.32608367 -4.947652142821904 -13.775397314888934 3.8158820053955376 
C -1.11395501 -1.46192047 0.14980004 -22.263867227327793 47.92666280694771 2.7178354327119814 
C -2.39470444 -0.8528674 0.04289668 24.017031309566832 -42.50630207705574 42.37687089564595 
C -2.47404263 0.52642783 -0.04361451 13.57017319546791 18.478990884836378 -15.02275417300663 
C -1.36197994 1.33624435 -0.13647569 21.02471625085222 -6.578092047490434 -3.626113877495235 
C -0.08710677 0.70690787 -0.05635771 42.15352861645471 44.63776560374384 5.3063879116449915 
C 1.1655433 1.45858398 -0.14346635 -73.24382949777204 31.654197921045984 -9.849817376119232 
C 2.34459672 0.85969467 -0.14979572 65.73064759163589 -31.91422357431223 -16.11960780971736 
C 2.46760824 -0.59003971 0.01323386 -14.553900690158898 77.92551620970553 1.8465415605495485 
C 1.3555423 -1.33465596 0.17205346 -9.207071537542395 3.7007352243124783 3.4845505609582004 
C 0.08719253 -0.68020817 0.13512404 -44.117428514339124 -38.4817037092571 -20.271923847513534 
18
Properties=species:S:1:pos:R:3:forces:R:3 energy=-241633.29715695098
H -1.06932557 -2.43029925 0.59300344 2.7942734573725376 -69.91012367468223 13.63140425102752 
H -3.12052181 -1.69214644 -0.09878593 -17.12250172998372 16.858874738199102 -2.904924790868129 
H -3.431453 0.97635476 -0.65713951 -2.3236590302706808 -0.9533775908256098 4.282574922296457 
H -1.38509299 2.3608655 -0.46522742 4.421766596740392 -31.882993791230312 1.7686592058542951 
H 1.0034649 2.59996538 -0.49215552 15.359083853155171 -37.71096983348412 18.740047016592076 
H 3.31903129 1.49750385 -0.0371363 22.16482033859373 5.842708682936134 -8.778639136708385 
H 3.4302365 -0.87374708 0.03787174 11.510341560738711 -26.682717890114724 4.713093182351349 
H 1.29123009 -2.38901822 0.2143084 8.67888194116744 -0.5150412126108199 6.6272146843437305 
C -1.15961806 -1.43576105 0.35653828 -37.928322530569254 47.044301666957836 -33.68726438893353 
C -2.358307 -0.89347307 -0.06216946 -20.058536536008063 -13.865086889744678 21.077829175527153 
C -2.50272997 0.51285963 -0.29807214 20.505161803338233 -30.373595384067237 -14.602041467185654 
C -1.31351357 1.21991687 -0.29155034 25.612784762802754 61.889779150968515 16.421468043684808 
C 0.02216364 0.67914342 0.03477147 -58.380606201799765 67.08531769700313 -48.74201675706024 
C 1.23289558 1.49864972 -0.16321735 -116.70205060576615 51.4101508722482 -13.142982349269637 
C 2.41278897 0.92158469 -0.07318726 28.404390122820555 -56.83843881583635 21.169450452867725 
C 2.41177244 -0.52423295 0.11478087 12.64561579935763 30.181910969355716 -5.89841974152406 
C 1.26953053 -1.28646567 0.24128791 21.432701539380584 -18.083494663570267 -4.43833726004487 
C -0.018127 -0.69637385 0.21683803 78.98585485892988 6.502795968497704 23.762888514512518 
18
Properties=species:S:1:pos:R:3:forces:R:3 energy=-241637.78174261787
H -1.24109276 -2.61968113 -0.33722312 9.620768926051989 43.11039014951508 20.379762413486713 
H -3.38385261 -1.18853834 0.50565388 24.89704808134768 -13.431470079295154 -13.343734737524121 
H -3.39081174 1.00715429 0.51495983 20.00405873130855 10.278393261299875 -16.224857728345917 
H -1.37499493 2.48287409 -0.25276292 5.917296826764075 -38.619664501454714 8.769693302733218 
H 1.34391385 2.46417512 -0.02106768 -19.224645831295888 42.48098716935401 -8.077243774990277 
H 3.39315958 1.41526107 0.05411944 -12.464182807593522 -10.35408540452215 13.793580694816717 
H 3.24437048 -1.2377159 0.50092122 6.549940655845357 8.47996164642987 -3.8449429217833164 
H 1.22032147 -2.39996876 0.17414125 4.145830782492598 6.602058676662238 -8.613046342484079 
C -1.20402358 -1.47037873 -0.08895062 -26.722153554838762 -47.426206007388394 -16.63888477510645 
C -2.37093186 -0.79131077 0.19239492 -31.897852128943573 -16.00772203651231 8.576421073640363 
C -2.39866677 0.60633205 0.15750534 -40.976175517998996 2.2167371039664863 22.89915306570079 
C -1.28556332 1.32518581 -0.13068092 15.660475687809235 82.66487769988005 -14.772007569429631 
C -0.00384572 0.71376694 -0.24058815 -13.696114505537707 15.331996142988851 19.941819727859375 
C 1.23843484 1.41364149 -0.10047533 -13.940111415717746 -0.27476540887485057 -5.625384445556124 
C 2.44494361 0.81952972 0.12109105 17.04385807817658 -31.564490558874542 -14.091199246900665 
C 2.39284616 -0.5983284 0.20960082 14.49944185859613 -19.58236535148208 -6.010086137835497 
C 1.22251928 -1.30565716 -0.0406289 32.556251991155904 -34.113597886515144 26.790498350856623 
C -0.01984447 -0.70636613 -0.17478127 8.026264142378082 0.20896657064393287 -13.909539763316664 
18
Properties=species:S:1:pos:R:3:forces:R:3 energy=-241629.63830286663
H -1.16265868 -2.47981464 0.03468656 -1.6018805905834401 -25.752408076107635 3.9913645471480628 
H -3.29170182 -1.3788483 -0.07489791 -16.35917449246749 -2.814574713689459 -9.717007790547823 
H -3.32136062 1.01889229 -0.21661152 -32.619871290303266 30.83469952637577 -3.896158532783773 
H -1.45179168 2.42461996 0.22168742 13.57558528272436 45.63441143291593 2.030483749648155 
H 0.87018431 2.45983735 -0.01934072 23.199136144951552 17.76402498706156 8.248095685556027 
H 3.17262386 1.4494498 -0.48842568 3.898767339086181 -4.50895646083001 12.145436481923209 
H 3.20755316 -1.00505114 -0.61108313 83.1559404251086 -41.16620452652953 -27.93783713280313 
H 1.35892817 -2.45581259 -0.08299325 2.2834276796244084 -28.02743777108038 0.5424953414805251 
C -1.19385718 -1.40336306 0.0442645 23.623609089311138 -57.09014119117687 -1.8203372870629058 
C -2.38340642 -0.79709509 -0.13681588 10.133450354780175 39.964106900295484 9.234887341831298 
C -2.3426048 0.62482566 -0.14640324 -22.528082386351496 -19.914287334800598 8.269464180814843 
C -1.22512308 1.40669709 0.08324675 -51.59288470970038 -67.58706822732424 -10.25690499811536 
C -0.04337968 0.68513801 0.17047314 45.13422855801837 -22.66371659765579 9.197995263252109 
C 1.14778884 1.41708194 0.14850994 -21.334539273147247 25.38455808672077 -5.184842440194752 
C 2.35511205 0.833669 -0.06535848 16.7237445008396 -13.53994424534928 -31.813137073378105 
C 2.38152416 -0.58476205 -0.21589975 -49.21748356388457 36.20468420656824 48.053979669431506 
C 1.3032235 -1.40305407 0.09372844 8.448999858904472 30.1833398837168 -26.538712968042844 
C 0.05261242 -0.78192968 0.12811235 -34.92297174108992 57.094916492531326 15.450739519306094 
18
Properties=species:S:1:pos:R:3:forces:R:3 energy=-241633.80385257633
H -1.47309199 -2.43632611 0.41326895 20.85626088462154 -47.97532178777181 9.696088721465648 
H -3.35342781 -1.44376387 -0.0726538 -24.338075756425358 1.2096192891323165 -1.0919941420619694 
H -3.41637078 1.15842232 -0.51132767 25.421804725792878 -7.820158957919474 0.4732267908674047 
H -1.22636732 2.40355836 -0.03569889 -5.36188789408663 15.840017295004099 -9.240606556738804 
H 1.32083206 2.70434811 -0.09173792 -18.759877501953515 -57.881216641182355 2.6316724896486754 
H 3.43972682 1.28255703 -0.23386362 -11.32841763906133 -0.7022396663032506 19.436301844073387 
H 3.42505796 -1.24551021 0.23034877 -35.24931680802652 29.3726177506121 -4.929556513651564 
H 1.38888316 -2.39081605 0.32404037 -4.02353942960408 -37.432390824123566 -2.7802131772236054 
C -1.27235905 -1.42654585 0.19396874 3.3233654635639187 51.33617105461715 -22.297104605441522 
C -2.49921881 -0.78926181 -0.06507237 66.19085999651742 24.5627425977256 -9.556962267179273 
C -2.42504322 0.61185605 -0.36301511 -41.82936190278062 12.527736886583323 22.87854586755386 
C -1.23792753 1.32655174 -0.14726859 -42.84701692343443 -5.93523948501941 -10.022775304863654 
C -0.02152864 0.67454787 -0.01493069 56.478316822209855 58.92419961356939 4.876418686734652 
C 1.23110168 1.51184116 0.00353432 27.629531961447682 -12.550587658150324 -0.40201705120108344 
C 2.47536409 0.80062969 0.07879094 -34.177487552861116 16.455310190532277 -29.169465260559395 
C 2.42549231 -0.6263679 0.14184535 81.44388401526923 -5.95413198593303 0.15247049852319303 
C 1.29215164 -1.35926204 0.09726621 -26.95811534160738 9.196316140650195 21.34302975184054 
C 0.02314399 -0.72671376 0.07305373 -36.4709259337605 -43.17344381202323 8.002939042392464 
18
Properties=species:S:1:pos:R:3:forces:R:3 energy=-241629.4764870738
H -1.23751617 -2.53010318 0.34514745 18.039666717689812 25.654525663641284 -8.218865196758593 
H -3.17451137 -1.39549164 0.49358286 -38.276990678707136 -11.516849346642173 0.3781618892076547 
H -3.46769674 1.10570203 -0.11354145 13.877596115964723 4.562653995280894 11.566503231324326 
H -1.45616295 2.36177303 0.03259439 14.571867064835164 33.51245895099858 -5.013811470650973 
H 1.26270571 2.64599408 -0.19610845 -6.040918670866821 -48.43758803470597 -4.4421366306780135 
H 3.24566038 1.35493199 0.55511864 -19.25075286745671 -22.480369690722547 -21.791264178330877 
H 3.3573361 -1.11273978 0.54621076 4.664676109020748 -10.593029531222847 -3.6236426264342265 
H 1.34243725 -2.47886413 -0.16987182 -8.442706706610437 4.681357053682555 -2.8796324137662834 
C -1.14789326 -1.41167196 0.13277513 -58.62702337273581 -28.48705845125968 2.309375815764996 
C -2.39275141 -0.75571163 0.16850061 42.140605538689414 -12.190556972744405 3.2590536449253733 
C -2.4635943 0.63615827 0.01377885 -13.364475933449313 -21.59286208739065 -1.9144298154644859 
C -1.2579986 1.31155833 -0.03148835 -79.04931288641492 47.19555314144518 -12.663413787445286 
C -0.0298435 0.77080663 -0.1924202 52.80833468091858 -50.26653319674576 3.9761872235732807 
C 1.20041287 1.47024584 -0.22764043 41.77073253859714 12.135273995554284 33.18281611573153 
C 2.38703238 0.70346961 0.13093606 -6.553068851766154 129.1310311297718 8.05054975741141 
C 2.43723254 -0.64042127 0.19842481 -35.256303665632785 -64.89856644984074 -27.062735589260228 
C 1.25885744 -1.37332197 -0.19767616 50.55395843111357 2.4495517216775684 43.71500235487698 
C 0.01927484 -0.70701675 -0.12044388 26.434114065168835 11.141006923401568 -18.82771832402659 
18
Properties=species:S:1:pos:R:3:forces:R:3 energy=-241639.5232420295
H -1.11647171 -2.60520493 -0.18151506 -5.756471033146897 40.671695805339716 15.27871008844112 
H -3.37214596 -1.21418432 0.19056051 -15.355890437076814 -30.10656390005798 3.240154029085473 
H -3.38151856 1.25180981 0.41235204 6.107867755512891 -15.577276111541257 -4.675678156690631 
H -1.34630195 2.47774142 0.17418872 8.070473922635529 16.092942251843606 -10.145837441432427 
H 1.15720351 2.52483777 -0.33930405 5.106414607818087 -5.533955271225094 6.124981524856688 
H 3.29470437 1.46581022 0.20560201 -29.842175611161483 -39.205428081281724 -3.9584817295272554 
H 3.37252223 -1.02522761 0.5325992 31.161692051603783 -25.42202291686544 4.582186839559651 
H 1.36100252 -2.45615082 0.16015947 -8.586639293598477 -4.192801154146409 -2.774559182473659 
C -1.19955795 -1.44808379 -0.0113718 26.119744604981342 -73.71889075379846 -29.194392404778906 
C -2.37334042 -0.83370346 0.12621789 -48.55554521166934 106.77248913590859 1.8337275783205385 
C -2.45080232 0.68676416 0.15228172 19.36378888707691 -35.629320277319465 -1.2488438777100683 
C -1.30001364 1.42097103 -0.07108696 21.299480473906023 -47.88834892893371 8.724791002984588 
C 0.00881997 0.6931982 -0.22674784 -56.64193759603374 48.026359525615284 9.837456377530003 
C 1.21600647 1.42918553 -0.18430451 -30.443823263907014 5.256226495554917 -10.316178263127115 
C 2.36133697 0.74546947 0.07606084 76.1814948077354 63.54020132609245 1.9870423814288745 
C 2.45004266 -0.64408471 0.18605534 -33.39744735351482 18.53630280183714 -3.216710346995197 
C 1.28533621 -1.36951587 0.01544864 -6.248330630118728 -5.16825636121667 1.3473476604048111 
C 0.00478244 -0.71539933 -0.15940079 41.41730213313631 -16.45335477162651 12.574282734302468 
18
Properties=species:S:1:pos:R:3:forces:R:3 energy=-241636.2781781805
H -0.81869092 -2.59961052 0.05783059 -19.468481469813593 25.299488470662386 4.500974699365687 
H -3.04216416 -1.80575403 -0.4088795 0.9787529754007145 50.721956070420276 11.601062799904954 
H -3.5127958 0.71237741 -0.4679866 -8.959929829946907 25.431290108344225 1.848425830192515 
H -1.37729312 2.45159557 -0.25198546 -7.736043927803559 -33.202523275704124 1.763975212720426 
H 1.1236952 2.6594174 -0.31176353 -8.044968097745302 -16.046426049650627 5.8337213452243395 
H 3.35965141 1.25634512 -0.40512999 -9.555545211028646 15.609024098420514 -4.282105337162023 
H 3.46808522 -0.9370552 0.00746133 -11.84419761818415 -13.01244005353923 12.779721487332917 
H 1.40322794 -2.35083384 0.64697876 -9.121106626593864 9.837971023864206 -0.9864857144452613 
C -1.09457795 -1.49225522 0.09441269 30.8267343664061 -2.405861331038512 -1.9068927368926192 
C -2.32383287 -0.91834791 -0.14122881 -14.47711640575275 -91.18333702658613 -10.077668146929458 
C -2.49667216 0.45865908 -0.18597429 27.515440561096053 24.57239399522346 -13.932331243831337 
C -1.33940254 1.30698634 -0.13779598 -31.75772602751496 16.43509905661489 2.8068265589713066 
C -0.03463934 0.75068443 0.04326316 -37.9588526792337 47.381638109174894 -12.859683772143818 
C 1.13243532 1.55566351 -0.1044576 48.930384430304564 -9.051042390058509 -18.146857825371576 
C 2.34787833 0.8543201 -0.22171959 -9.208292933220342 -21.18527286309183 29.5130082901341 
C 2.42307926 -0.57795919 0.13784191 50.57585224509601 72.66247835805925 -32.021398080499345 
C 1.31281193 -1.25997332 0.4240947 -32.05864116210831 -32.3474466921743 -7.9396671888117405 
C 0.02226449 -0.62629129 0.18673553 41.36373503900055 -69.5169860514777 31.50537263641989 
18
Properties=species:S:1:pos:R:3:forces:R:3 energy=-241637.1228881765
H -1.01788026 -2.52879443 -0.19885574 16.78033306700197 -40.100834438604686 2.4513363823526246 
H -3.19977045 -1.55874393 0.31183581 -10.105850369921743 -12.369519899268553 -20.39671728281027 
H -3.37833333 0.97153719 0.02391559 -30.812104892154824 3.1362120710712564 3.506245157004817 
H -1.60068265 2.3150873 0.1771054 7.491758863109207 34.46336766240527 2.4806285338444813 
H 1.25575624 2.63079074 0.17437586 -22.669010102807583 17.29249510611177 1.6745180587898068 
H 3.22505068 1.4642007 0.11050944 45.83808805587121 27.997454285918387 -1.5222289908867357 
H 3.3924158 -0.94927838 -0.01719941 45.59937160681145 -21.461956930419998 0.31828504128320334 
H 1.32709317 -2.32962406 0.11714026 4.809386594615323 -63.93864431265923 -0.088124291074298 
C -1.08394739 -1.47774847 -0.1127265 -17.457077580804416 8.413109799109618 -5.037268196772761 
C -2.35652625 -0.98862721 -0.08731388 -8.330944258794228 54.709632714113575 34.98129397762235 
C -2.44682382 0.44541881 0.02972209 5.918360508242829 -12.409831885745989 -5.208922908187026 
C -1.3506816 1.28362374 0.11235808 -3.201435786094598 -38.033238047662685 -5.504874195879523 
C -0.04012779 0.72651073 0.09327384 -10.641948206856137 75.63236242585734 -19.332754764467676 
C 1.14697736 1.56049113 0.05654891 -21.876243671989723 -17.678983830708294 14.290579640204292 
C 2.33266766 0.93444446 0.00556651 3.8335542964522595 -84.36277303478153 -13.170015511667817 
C 2.43324967 -0.53642632 -0.080992 -15.78797398091315 60.35212499990826 17.582508987824195 
C 1.31976734 -1.30433316 -0.006831 -15.969210126383533 63.039483645902884 -17.53653707749158 
C 0.04514697 -0.6446272 -0.06820141 26.58094835625778 -54.68046033054742 10.51204862613296 
18
Properties=species:S:1:pos:R:3:forces:R:3 energy=-241640.46909947816
H -0.93122916 -2.51649324 0.27276456 -2.425688258936814 -19.36653524862072 6.312455089031918 
H -3.22725086 -1.58237273 -0.05230856 5.505347338477097 -2.624354787970421 2.519695408223042 
H -3.46077806 0.67689395 -0.5535996 -49.01674777712474 30.76189960068603 -11.083883551947205 
H -1.49692327 2.29046373 -0.11247465 -13.009029632209353 47.66533867963549 -11.384863906698117 
H 1.01356695 2.56185526 -0.22240126 9.442121427926223 21.20261549589761 -2.233269820997474 
H 3.25398655 1.50895639 0.09099229 17.667711415839793 10.197945975680936 -6.351945301524096 
H 3.45611442 -0.82730356 -0.21756749 12.887033548761426 -22.876884532267642 10.353280232031544 
H 1.45915616 -2.29108807 -0.04728013 -3.488995018240667 -36.24802359417752 3.118248068037084 
C -1.08841888 -1.45115991 0.18634162 20.74705388116065 -25.230333758869733 13.000776317725371 
C -2.33087494 -0.93655877 0.0071587 -30.052664776029186 -28.087562455603564 -23.056005172990982 
C -2.48655803 0.38946607 -0.33389195 43.27713556179663 15.87539033682266 34.514116059913384 
C -1.39782964 1.24516132 -0.15330224 -27.07079680073467 -2.38718583537641 -14.30972827846397 
C -0.10991406 0.79369863 0.00408271 71.17662205613331 -72.0202364934272 11.332276300746802 
C 1.14530587 1.49676028 -0.09681066 -36.59715302670251 8.891500840634745 19.109637791275276 
C 2.37588281 0.88727567 0.04033192 -25.105403954152642 37.23404209513044 0.9162258174372258 
C 2.47139631 -0.49021223 0.08397097 18.82113108811301 -0.5575244374244888 -12.985536145635123 
C 1.34505037 -1.25097715 0.13876459 5.4599635953835675 2.603894631633263 -1.8894078055612527 
C 0.0703759 -0.66842479 0.19405497 -18.21763948364009 34.96601467343756 -17.882071100603433 
18
Properties=species:S:1:pos:R:3:forces:R:3 energy=-241643.5158545772
H -1.13320399 -2.5972466 0.04535337 9.092169035594926 -25.783329545717447 7.574002667613667 
H -3.19177933 -1.58785841 -0.5591625 12.159621273282031 16.295225535069193 14.197225878314713 
H -3.38959044 0.83742988 -0.48932103 -45.856386460440504 31.231042423869116 -7.937766317674122 
H -1.55088489 2.31313383 -0.24041853 13.43207603384994 25.384566387468094 1.4829296955830513 
H 0.80705973 2.45976222 -0.36772032 13.06721075603724 18.117094902924237 0.13226055042685636 
H 3.25900312 1.5428065 -0.39560748 -0.7867709196065047 4.332380592072566 -0.74007684425654 
H 3.51178306 -0.75543147 0.05035688 4.969669282193181 -18.502863834145504 8.552856437803339 
H 1.56235614 -2.22967792 0.73933662 -2.237203189408877 -5.278736936481558 -10.178286248550197 
C -1.17596507 -1.53208824 0.16185205 40.993126829859406 13.76495971803721 -11.53308323676943 
C -2.3400991 -0.93407026 -0.1914987 -34.5094415533479 0.7642403197220714 -3.943009136511883 
C -2.45048427 0.49500008 -0.19338681 20.93206330920115 -54.2655368030757 -2.3227862659804206 
C -1.3407204 1.27071556 -0.0702251 -4.868784370836968 -4.163640628790719 -6.232048121328562 
C -0.03889953 0.6842726 0.03435733 -54.21102223792374 -31.31760261698302 9.59986171518028 
C 1.081423 1.43180754 -0.13997034 29.77299006802162 54.783233069009746 -14.819516303838578 
C 2.37374776 0.93532113 -0.17516494 -19.97434205588203 34.41046699969767 -6.133534852065447 
C 2.48308997 -0.39667755 0.09698156 11.087237053866845 -41.503973793428585 6.6756673323057285 
C 1.37421917 -1.21668575 0.34907952 7.751665934270796 -12.946704063823779 8.905993945465665 
C 0.04420841 -0.73616158 0.23017199 -0.8138799745516642 -5.32082409706568 6.719311475923969 
18