18
Properties=species:S:1:pos:R:3:forces:R:3 energy=-241643.57038593743
H -1.12798526 -2.58320521 -0.36248688 -0.39959323298193705 30.546910244946673 6.317813814341273 
H -3.24751529 -1.50916797 -0.04502852 -22.11278176778697 4.639613781201932 5.973402763760499 
H -3.44546843 1.08019256 0.21355704 -17.44801790800878 12.396232889984162 7.105014001166629 
H -1.36024925 2.31972891 0.21647071 -5.0958477564722875 35.24251731014561 -1.8447972177900747 
H 1.20455449 2.64066804 0.08736511 -5.175953525629821 -28.53189908831389 7.901534741417862 
H 3.23897061 1.4347143 0.21075713 57.80066144584818 28.278589925455297 6.493040218747744 
H 3.47664832 -1.16531512 -0.0730794 -9.205690056023167 10.713073753228155 5.947811559754924 
H 1.40688953 -2.43960602 -0.32531298 -10.868527777504465 5.067248124471615 -5.251136951623128 
C -1.16335493 -1.45320937 -0.18099315 -38.168719288051975 12.66733055436204 8.522457915275053 
C -2.44053055 -0.78733383 0.03618818 61.45340293494367 -89.54047920391815 -22.123973546824303 
C -2.49963898 0.57117471 0.18227166 8.830869810524687 10.144256741977378 -18.533717711955664 
C -1.31986368 1.26848419 0.04461258 -7.799155695542996 34.0188922886325 23.44451335082978 
C -0.02739765 0.76244916 -0.00299621 11.043923754320591 -38.84063513855286 2.1826732085833163 
C 1.17810741 1.49910652 0.14081901 28.677909233775484 -0.4258318952789294 -15.127937685656583 
C 2.42488992 0.7987458 0.15981857 -72.5131040382886 -9.61513271861774 -5.2105273240630074 
C 2.51002675 -0.60962239 0.01534993 -41.39690838277777 -20.320930273904267 -27.2767395277099 
C 1.28045901 -1.3397311 -0.25501289 76.77372229808715 13.715124402734936 32.35940095414457 
C 0.04507178 -0.69143421 -0.1334819 -14.39619123425205 -10.154881698554457 -10.878832562398976 
18
Properties=species:S:1:pos:R:3:forces:R:3 energy=-241630.54593228563
H -1.01425122 -2.59923181 0.35480952 -11.894123055885961 8.244038991755783 -8.544630397203429 
H -3.30650782 -1.38461969 -0.20575662 8.321463619527067 -6.2108195529532395 6.600195751798109 
H -3.42086357 0.81279846 -0.11189306 -57.22955817161965 33.10999128779981 -12.473511661766725 
H -1.55318795 2.50422337 0.30729411 12.031369983813557 -18.71349648335984 1.6049257790309788 
H 1.03747591 2.56803403 0.27120391 -0.575926008424838 -3.711124202501295 6.698659216577269 
H 3.26155202 1.45849238 0.17671048 18.432996443903875 16.216082652601454 -10.16769449496242 
H 3.46102901 -1.00480183 -0.4853826 33.06609930758283 -14.73364863021586 -0.8428234946558352 
H 1.37001833 -2.44471872 -0.18405651 1.6003935709910677 28.742755857706022 -4.463368756516475 
C -1.17769057 -1.51951011 0.11798899 87.9902814378275 -24.22627536233566 6.897834462839846 
C -2.32106077 -0.88656731 -0.09078061 -63.38615487139839 39.72234763443028 -33.39176252741767 
C -2.42546182 0.56944121 -0.28970001 48.69513650780596 -27.311784097098567 66.52487139651994 
C -1.39219413 1.39512374 0.19413034 -6.628794197977735 -40.482103178954304 -44.13149590941434 
C -0.10129028 0.69252172 0.17128524 13.997308308076997 51.19377292006334 7.127289649526055 
C 1.09126761 1.46385087 0.23245934 50.84537158166093 -19.33025149623841 -27.915828294179178 
C 2.38944478 0.86746589 -0.04592023 -46.67447965717056 -12.255754599704723 33.65942961150788 
C 2.5460114 -0.55733846 -0.1947957 -72.81016288283858 38.31051146805098 -2.5754871026421315 
C 1.34613995 -1.29890092 -0.1547242 6.293942050853193 -30.532509634157382 11.89182137723461 
C 0.05866685 -0.71854859 0.04979095 -22.075163966727295 -18.031734760709444 3.501575393723506 
18
Properties=species:S:1:pos:R:3:forces:R:3 energy=-241646.47041401462
H -1.31831574 -2.49544332 0.11266406 19.244309115889763 11.671794653689513 0.27446658197112017 
H -3.35646289 -1.44580389 -0.24271919 9.38865750022151 25.094742237123118 6.0372900584643805 
H -3.37499332 1.19986214 -0.06070499 -19.051492242078783 15.950461109816546 -11.84706374765366 
H -1.36285324 2.47014618 -0.32630864 12.57789000192607 -17.53430061899779 7.7952033539948475 
H 1.17027112 2.44631128 -0.38005099 6.042617952426525 18.12742696170282 7.314754912953959 
H 3.41654797 1.26603844 0.26306495 -5.605880060982485 4.937413763905998 -9.277940946568357 
H 3.30809108 -1.29407977 0.31763397 46.894442346379144 -10.084662119462005 3.6514655456494087 
H 1.25455908 -2.4870569 0.27571256 2.2262319730862052 -11.301295540084661 -1.1596250738098055 
C -1.19586819 -1.38228211 0.0452679 -79.46327589883893 -15.84172843477427 -2.1064711623110224 
C -2.48046267 -0.73999044 -0.12334312 51.536464530126615 -28.87532234996289 0.3466866411691014 
C -2.44579652 0.67676156 -0.20289792 -23.49816938154403 -35.3877044958009 16.08816102138392 
C -1.25756002 1.35326478 -0.18073522 -28.215249294253876 58.57209851350175 -15.955598086590195 
C -0.03744715 0.7204978 -0.07639459 55.07972271945737 6.379379271436012 9.893106959244552 
C 1.2217399 1.4070181 -0.0748557 20.540728133987383 -14.56494424156541 -6.821510276999757 
C 2.45571248 0.74090506 0.11082921 -20.020023440058242 12.028875016331618 2.4321296388616687 
C 2.46756442 -0.67057704 0.20237231 -45.58735093886259 -10.548409456883295 0.3575120015030483 
C 1.29049685 -1.40725642 0.17111297 -35.610565331647244 52.673341998800474 10.112839599170107 
C 0.00371339 -0.66980626 0.13211077 33.52094112894455 -61.297165082955594 -17.13540820625436 
18
Properties=species:S:1:pos:R:3:forces:R:3 energy=-241642.27970173658
H -0.90008645 -2.64352865 0.31021408 -16.418197549238428 24.94757591614114 -2.504965139182809 
H -3.25283302 -1.39365687 0.46881181 -1.146541910203229 -3.4503633401861897 -14.381632909263567 
H -3.51942233 0.76982121 -0.3141151 -7.349970240573327 23.519402693203542 2.714111954625817 
H -1.38863855 2.44672314 -0.44957331 -0.9346665205321113 13.334728426675582 -1.161662314367777 
H 1.04815699 2.52353748 -0.26872716 -2.5252497940050778 36.61851796449818 -4.973902663329363 
H 3.28743772 1.42796034 -0.2052659 14.913536497156315 15.30301111914805 8.401848056630541 
H 3.26397404 -1.02287886 0.71312726 59.090452910116625 -19.49407030217708 9.236456183075884 
H 1.32023321 -2.33500967 0.48233604 2.899898095451808 0.0555877331990832 -2.917313063341428 
C -1.10831248 -1.53935946 0.12234475 -18.586050366381972 6.716542583780276 -1.4231453417002307 
C -2.3536706 -0.87581789 0.08503622 21.621165264129683 -27.01393668155264 19.343737839000813 
C -2.47237094 0.51756125 -0.16273772 33.29027166150667 17.069247692604247 -7.114948809894617 
C -1.32716725 1.38242733 -0.26719105 -25.34642919679003 -83.94519089652344 2.0516648851816153 
C -0.04743391 0.68447512 -0.16191448 -29.172121499703668 60.775139384380594 6.613533866929694 
C 1.11951994 1.48070947 -0.10504539 36.79186484254587 -49.83949769310459 -15.018221964966719 
C 2.38663309 0.86579099 -0.00969488 -19.549186078599636 9.656068446965662 0.23208296612536145 
C 2.4835208 -0.51013726 0.25977297 -84.95710298584882 -3.6555340976601185 -14.609474193505422 
C 1.28850743 -1.26844163 0.19717833 57.744855521576525 -10.781948611253819 17.18756061588159 
C 0.04263003 -0.71815537 -0.01953143 -20.36652983642827 -9.815281523959536 -1.6757311537204265 
18
Properties=species:S:1:pos:R:3:forces:R:3 energy=-241642.13229238286
H -1.08076171 -2.51229768 -0.38485554 -5.659093780446376 -19.98606626856926 -6.756616220227357 
H -3.20508032 -1.39497557 -0.32191104 -29.299394486808737 -15.64783957873721 -7.047979566290756 
H -3.45060857 0.98658597 0.07293745 -50.057010476031 24.513251170526825 3.064723663458996 
H -1.39806348 2.37830226 0.53362648 -0.2238818277674277 -10.426210598036409 -14.317780003370038 
H 0.96595418 2.53879808 0.46142751 11.940826617804298 -21.044166087657718 -13.414798621201719 
H 3.13181212 1.45469698 -0.29136105 42.40594248442315 34.37232506573542 -2.7873150594713874 
H 3.50872681 -0.91899815 -0.55575444 -25.199536800469804 7.448418289678883 18.65975625935128 
H 1.50513763 -2.44981294 0.08971692 -0.22370869789463155 28.143102755960783 -16.931496790731867 
C -1.14958457 -1.44600658 -0.24006354 56.213202810832854 -0.6484460803475962 31.016996981682812 
C -2.33971395 -0.79164861 -0.18120172 -11.078933934898906 -12.926158528371268 -5.565316680443178 
C -2.49654569 0.57440418 0.06038342 31.33219058749766 -20.564091180246493 -6.625020915407616 
C -1.36509282 1.3041367 0.2054434 26.800362010321816 31.584843991317513 34.7511296699503 
C -0.07835279 0.68034683 0.22554213 4.912670421948705 -32.02107553717468 -11.666303116422945 
C 1.09596659 1.43455154 0.21238774 4.548412284511839 37.71030340205596 16.997575482729772 
C 2.31647571 0.84152918 -0.07131068 -23.073053722177217 27.18602777511203 3.5850643103268443 
C 2.4969846 -0.51682867 -0.19803826 52.686712131100315 -16.799488820187925 -21.971527950543088 
C 1.41901482 -1.31107054 -0.04897396 -46.20525264069316 -77.03679313980092 20.287665621906473 
C 0.10277687 -0.77632056 0.06912878 -39.82045179543233 36.14206336874207 -21.278755879475487 
18
Properties=species:S:1:pos:R:3:forces:R:3 energy=-241635.54179176904
H -1.12494215 -2.56641244 0.07914553 9.526828182744365 -30.459517605458093 -8.2425211408162 
H -3.23353022 -1.38807952 0.01246096 -44.11205081589303 -45.22292204319501 3.1049206252949184 
H -3.48990183 0.91291155 0.31649716 -4.586628925200023 5.501823078326752 -2.490109173111642 
H -1.32565072 2.32820314 0.39177007 -1.434280201327327 8.141246094335672 -1.1692124369711552 
H 0.89691967 2.6457713 -0.16829815 7.219427944842922 -6.948567444674357 6.379162266184493 
H 3.29826115 1.57833168 0.02945992 -39.9758358562669 -24.92502041401473 19.048496858115197 
H 3.42318235 -0.85018484 -0.04508165 55.78506330779735 -26.343418914065623 4.513972483856913 
H 1.61270261 -2.37829909 -0.20276931 -14.263912896509497 22.184236972409927 -5.109959026926222 
C -1.1043295 -1.51476696 -0.11685523 -6.785691366467695 -15.765784897490127 -2.039252896287386 
C -2.31684915 -0.90409226 -0.03566773 -11.615411234568196 66.96915822474632 4.152476123637459 
C -2.49769601 0.50609898 0.11411594 48.669131452255144 -8.342498899071803 0.947948902074508 
C -1.29787761 1.26002368 0.16443538 -86.11511415721425 8.846580753570416 1.3856390078189285 
C -0.09312265 0.66228724 -0.0191382 74.18494095569216 6.6209642216073705 -25.781208111865173 
C 1.07967945 1.55813108 -0.04005316 -1.2412629237594799 -46.09418982729443 23.290328155073272 
C 2.31357307 0.93424749 0.20029951 35.22528733033925 51.947797391469386 -52.997037941519075 
C 2.46144177 -0.48172192 0.05988096 -27.5751798537791 59.66275979270739 6.977278543853403 
C 1.38229303 -1.26162671 -0.14848083 5.233544110576525 -76.22709199861731 -4.626672916120942 
C 0.06810911 -0.7822664 -0.21316082 1.861143760916754 50.45444551470822 32.65575186352975 
18
Properties=species:S:1:pos:R:3:forces:R:3 energy=-241637.78710616665
H -1.21614054 -2.65311977 0.24717797 2.2603077266798404 35.01361708770918 -5.619222919398255 
H -3.4760285 -1.34944176 -0.22739744 40.775119559556586 18.16215373105101 16.094939174485997 
H -3.50097622 1.01948122 -0.25343509 28.25591346958214 4.604655776749664 -2.089748713912587 
H -1.3963624 2.53525642 -0.14671069 1.4458597438468792 -19.835853573318698 -5.409042068002655 
H 1.14588343 2.52640866 0.00452067 15.871460525874394 -24.694604712280814 -4.622041099113121 
H 3.42798151 1.31640255 0.38533325 -2.131838246138802 3.2883386814909503 -8.809723063801576 
H 3.48274966 -1.13639678 0.20709855 -24.35852761201519 -1.4786939428047778 8.216430706150028 
H 1.37080373 -2.41785384 0.05886352 -17.055781508799633 -15.54106706588488 2.9717031172834965 
C -1.26955635 -1.51299566 0.10535591 45.36822069602867 27.5722603623625 -13.84683591801724 
C -2.44070187 -0.81459343 -0.05665049 -33.17767320985264 -20.978826162171817 -19.921163911049536 
C -2.43585731 0.61893914 -0.21351344 -46.29064480007622 -5.122227531473819 7.225492233674973 
C -1.31889318 1.40863583 -0.1837805 26.56624061781744 18.84446686048805 4.377563931409227 
C 0.00204637 0.78348138 -0.10551735 -20.02743956488336 -28.25666053684147 2.843282255405366 
C 1.26475432 1.38427333 -0.03397722 -5.030297940661145 82.58326475217234 8.163361656853814 
C 2.50544401 0.76371686 0.1470407 -26.951817446029164 1.3628072093886716 12.081557487966656 
C 2.4695264 -0.62920667 0.22877095 -5.235727207123222 -33.619097466072645 -24.318485992736363 
C 1.20818076 -1.34647552 0.09482679 99.12197729437155 27.661837284218823 7.438658982465783 
C 0.02866781 -0.64240985 -0.00562086 -79.4053509123571 -69.56637075478228 15.223276511978085 
18
Properties=species:S:1:pos:R:3:forces:R:3 energy=-241642.96107851336
H -1.18272804 -2.39248657 0.79068374 0.004378051303859359 -15.923886860163378 4.436884629262847 
H -3.35409496 -1.1760388 0.35253677 -29.492067876273087 -15.622573289698385 4.120202818034579 
H -3.35019449 1.13002251 -0.63331001 9.887749419756245 -4.546039456597694 -5.480190144974556 
H -1.2526426 2.37167931 -0.85880154 7.802457021336587 -18.04526616467162 9.822562465185346 
H 1.1118715 2.54995749 -0.23301536 12.439346971594597 -19.51172243427601 -13.981271264243468 
H 3.32659048 1.2086681 -0.48437582 2.8180906730924766 -2.170454508519674 10.532319051102672 
H 3.29581773 -1.12537019 0.66441967 4.505236540206985 2.123358439834929 -12.684840387935383 
H 1.12086931 -2.30717005 0.89524804 7.019417880563574 -23.345592159126653 15.775429180061707 
C -1.20623583 -1.40219425 0.35831186 -31.29519059920324 38.65969544834412 -7.575438696901038 
C -2.41617471 -0.72869788 0.13434496 46.95828932316744 30.07610845811946 -33.35683179684947 
C -2.37270007 0.61751551 -0.47555712 -49.38634922419735 -47.55860885634085 45.95040309629511 
C -1.20967642 1.3024373 -0.48518897 19.485385348832153 40.75793226930791 -23.310674472589962 
C 0.03662344 0.68520414 -0.1761423 -28.691471469084867 9.018544964277831 -1.2322933733633823 
C 1.24031393 1.42670918 -0.22690518 -54.063157468345345 35.182965377187905 -4.189687188078171 
C 2.37532659 0.72690025 -0.19724814 66.08089762504986 -45.70426933658919 18.416426966420445 
C 2.36700752 -0.65846759 0.29274057 28.151243417445343 32.82468985892637 2.7264741390360916 
C 1.18970237 -1.28971267 0.57032122 30.023782918619432 -10.277317721610656 -19.238651563676676 
C 0.01969779 -0.70145127 0.16396846 -42.24803736804363 14.062437157416614 9.269176543213312 
18
Properties=species:S:1:pos:R:3:forces:R:3 energy=-241632.53321398242
H -1.03334173 -2.47759101 -0.14321588 -5.985418688425182 -9.293779958287114 19.67630372314761 
H -3.24608663 -1.40262532 0.16589982 -5.178098675903027 3.861246775352321 -22.093907054189046 
H -3.3420019 1.09875198 -0.68408193 7.410751869956296 -7.669461261860873 16.3545486045649 
H -1.36769526 2.35764477 -0.66104114 13.401930091204568 -0.5848315244844219 7.181331072080438 
H 0.93621102 2.5281184 -0.0241855 18.389281151022843 24.21264909268976 -1.437212736775443 
H 3.3190399 1.50410733 0.12655847 -8.288200153350319 -29.137104204199073 -10.046337569058585 
H 3.36435004 -1.08881478 0.23172227 3.2950314554776736 -14.807183764954464 -2.9766823798579565 
H 1.27900482 -2.48055518 0.37080558 -7.471406616487284 -15.468785343992478 -0.05702613412854729 
C -1.15726686 -1.41758486 0.11516443 11.802406912861667 0.6316180938760174 -8.230207575068833 
C -2.35210318 -0.79384757 -0.07867644 -39.472626766058546 -0.8987669741688832 25.732143580243157 
C -2.41579655 0.61330308 -0.27604836 -31.69304660435198 -19.187152541446096 -17.8648494215444 
C -1.2544155 1.31407007 -0.3016684 -0.47209314594690377 36.58457502286176 -8.334275230113985 
C -0.0008983 0.73240459 -0.01632413 -16.95786945080712 -8.432091236601728 20.57561024589267 
C 1.17174626 1.47617109 0.03300232 36.26441994178815 -13.792217000613187 -21.033459309428427 
C 2.42502814 0.81904465 -0.0200512 -40.81543154603403 -8.026974449184967 37.890875487740274 
C 2.3578944 -0.67055605 0.14128916 50.25669088205941 59.06143349746548 -10.860209242862922 
C 1.2000098 -1.41552455 0.20546653 52.13071858864692 37.96815307370179 18.296032927206404 
C 0.03340663 -0.66075637 0.24972036 -36.61703924565314 -35.02132729615385 -42.77267898784731 
18
Properties=species:S:1:pos:R:3:forces:R:3 energy=-241633.6539802404
H -1.00528923 -2.52462434 -0.38451481 -4.424913765797934 -11.35082965684111 8.091153455866298 
H -3.21265735 -1.71525341 -0.42772327 5.086446567215246 34.45064143093371 7.829946724837689 
H -3.5016745 0.99153557 -0.01919399 1.9740552693270683 1.8136279115815308 -9.66811045969337 
H -1.45536412 2.26918552 0.28823735 -8.652560271397189 38.117647161398146 0.035461978397051494 
H 1.18813449 2.60664485 0.18528697 -13.891949293912154 -6.9325161709882686 8.73832359276781 
H 3.12476186 1.61420327 -0.40851745 55.40647689465503 35.00560686653974 -12.210902104440047 
H 3.57195048 -0.83236093 -0.3917027 -20.16775658350047 -11.951251170624513 -3.1593830143208264 
H 1.58279562 -2.26081487 -0.42260024 -15.306514034519555 -3.546542913629696 24.68191049797751 
C -1.16802558 -1.48777568 -0.07502809 34.44001528853558 -0.44858661534116057 -1.58517000039547 
C -2.43157065 -0.9221991 -0.16711984 5.653107755803395 -26.93176165466888 -17.174840313515254 
C -2.51939762 0.49744384 -0.10939825 -13.79072049445244 -18.507049782439825 23.133625461234946 
C -1.36908038 1.22348827 0.12926551 -10.639918081224446 15.678468150548525 7.83695018393861 
C -0.06664625 0.74272695 0.2502535 33.83016768325316 -61.96274034832059 4.686422881193412 
C 1.1597452 1.49441004 0.26405629 17.768821633194854 3.9310726618573195 -43.30727794697886 
C 2.40590557 0.91744364 -0.16035023 -92.74064853313503 -8.378203970783396 50.2298889547653 
C 2.52758604 -0.47185556 -0.20054803 7.3178333043908 8.795630766484388 9.638226583499286 
C 1.38428066 -1.25466836 0.03396227 17.281118338991178 -30.379689318425452 -42.58199303445698 
C 0.05265155 -0.7514775 0.1676122 0.8569371367518628 42.596475466898475 -15.214234626498152 
18
Properties=species:S:1:pos:R:3:forces:R:3 energy=-241622.77028090044
H -1.0254483 -2.56166689 0.23494548 -7.333260836206404 -22.952579047132012 -3.6785046371528214 
H -3.34316286 -1.28031188 -0.32788613 -11.908843838357823 -22.618175140363064 4.384848430098179 
H -3.3139437 1.27073712 -0.15463322 -72.00066214541181 26.797095073338575 -13.360773800141986 
H -1.25180488 2.43816823 -0.11319037 -0.12032170413019978 36.375371288008516 3.378816827342648 
H 0.92530969 2.55762746 0.17855965 25.17252735449255 -2.8504173406424522 -12.27053823069205 
H 3.32624399 1.35383135 -0.53312764 -19.503995624336692 -10.099712560184807 13.230290795463908 
H 3.23769677 -1.23516434 -0.37449733 80.44131382414858 -34.91653866191239 -19.171414324516295 
H 1.24668753 -2.34879522 0.05444269 4.611981779175244 -122.57328895726123 -3.914633624689009 
C -1.14417939 -1.49902406 0.12295829 -58.98306732778323 48.811983756269775 -6.793637553300622 
C -2.38959867 -0.83038921 -0.10160241 30.606309206989366 58.78714834611448 -7.966521292231893 
C -2.46364535 0.70435479 -0.24212002 75.03303068161571 -108.1733920322387 35.72023361949525 
C -1.30186794 1.3839588 0.00200009 30.69025822215876 -44.45862598988375 7.136965949265896 
C -0.05299127 0.67533953 0.24345319 28.690290391322506 67.430520876043 -38.687710470568845 
C 1.19428182 1.48463484 0.04936127 -36.65700378656393 -43.65012964288342 20.53013400875751 
C 2.39287571 0.79686656 -0.19418768 14.700892695447035 15.470753806929748 -6.127956749862481 
C 2.44529466 -0.64959602 -0.13802465 -73.3494078888305 58.61005071609656 17.19754048580935 
C 1.30350887 -1.36517484 0.1300305 -14.440054754763905 118.4969579604858 2.129409684635469 
C 0.03298153 -0.71728663 0.21507161 4.350014936855799 -18.487023636605702 8.263453253929885 
18
Properties=species:S:1:pos:R:3:forces:R:3 energy=-241639.8696519724
H -1.16330559 -2.50339597 -0.18762165 6.26115054145297 -3.079310448152597 15.13528621868205 
H -3.28760869 -1.31503082 0.42275787 -2.5121002244198953 -14.637486844088054 -1.516195533401894 
H -3.49299896 1.09944066 0.25096614 14.925834647230076 0.7013728311182231 1.4887734217004456 
H -1.36192252 2.37338774 -0.41311276 1.297742394385568 13.614468354840707 1.1177952363927852 
H 1.06512794 2.59601764 -0.35673844 5.670037722884977 17.858029764705698 6.139102281878995 
H 3.31475215 1.30977653 0.27503289 -11.964187292421318 -2.4529064094182558 -14.92445909481608 
H 3.42305315 -1.10001453 0.41962481 -39.8329207037368 19.022558208542982 -9.815268479928022 
H 1.45679558 -2.49124495 0.10787596 -10.85128949695078 -4.417706345477008 0.6465606248835831 
C -1.1117774 -1.42516795 0.04820286 -95.52740744253559 -34.26961398996752 -18.782966623550873 
C -2.3588597 -0.78246422 0.21434308 7.714652901944859 11.305964117544923 13.021677599491847 
C -2.47650962 0.64030779 0.19205861 15.137362591334556 -20.6174887019726 -29.267964299969954 
C -1.31350184 1.30514641 -0.21174118 3.8916298822070026 5.145215858282221 18.2065022523709 
C -0.00097913 0.6959163 -0.20339203 -27.47742313834369 25.123243445976925 -2.328517339098392 
C 1.17733915 1.54520735 -0.13785098 -4.493973611906862 -76.02895790323359 -21.32717176698504 
C 2.35091004 0.79804679 -0.00139588 20.691040438205853 32.011322159066815 33.45627830727622 
C 2.37439421 -0.62175941 0.18113028 105.31586569442217 22.095146237182693 4.33812826668519 
C 1.32071621 -1.40677205 0.02391161 -52.71232823734787 -16.916352670146388 -12.919232147638375 
C 0.04214579 -0.74585414 -0.14875254 64.46631333359474 25.54249996355274 17.331671076026613 
18
Properties=species:S:1:pos:R:3:forces:R:3 energy=-241635.81207154528
H -1.19621494 -2.35567874 0.92500755 1.2343519587001917 33.86548380566148 -22.81215174715757 
H -3.39138783 -1.21363802 0.34496578 -38.626813816544356 -22.726153633219738 4.219595966514233 
H -3.40657197 0.98691433 -1.14166234 40.237042587295505 -6.394755812946613 33.26152617351727 
H -1.27377306 2.32650688 -0.84175954 2.173073987211501 3.8874332615232654 -0.8653801826032925 
H 1.28437203 2.42190974 -0.53861684 -5.354254764009993 -7.46636687703945 0.10686263525186725 
H 3.35301622 1.09557761 -0.5023882 15.64324570800288 17.553908170002476 -0.9957529059240429 
H 3.4333251 -1.17047752 0.55205216 -0.229343719507833 1.1408724997796778 -7.543619560758986 
H 1.34761544 -2.32350558 0.9597824 -13.091039829967645 24.37241950557551 -3.8253768745152565 
C -1.19139935 -1.32148889 0.38282749 -103.29741209929126 -32.75862658260207 27.454329273462143 
C -2.50239807 -0.71016311 0.10656599 116.77769057286237 24.474204455106054 -27.99915712494123 
C -2.44758112 0.61708493 -0.55239571 -78.51403563764474 -58.010405915098644 10.59970096043073 
C -1.29809899 1.30067903 -0.44451907 53.509505922458885 38.718170655791546 -23.20777247963357 
C -0.00457105 0.72130088 -0.11744175 -49.79180159897029 -12.13928207069162 -6.955625451543417 
C 1.21021333 1.34679324 -0.26064146 60.18871174476752 29.357472444205577 -14.961268165922013 
C 2.43535615 0.64030607 -0.16994676 -18.10137921659432 33.01052343259422 -11.779378268137684 
C 2.49278028 -0.6642209 0.27688674 -14.904633352738824 -13.006666290863581 27.62647254314759 
C 1.27563997 -1.24136835 0.60327521 -2.5185605774814945 -55.51695984156201 -16.869575587323162 
C 0.01744725 -0.66942057 0.1958003 34.66564975980981 1.6387264221418147 34.54657079613639 
18
Properties=species:S:1:pos:R:3:forces:R:3 energy=-241642.96663991897
H -1.13297275 -2.48754458 -0.0409717 5.133274640343472 -1.170501424448754 3.0207119153163253 
H -3.18722696 -1.42627756 -0.12209246 -18.981111391323996 2.520244443367594 -6.042658270342108 
H -3.36731654 1.13555327 -0.22261521 -26.174607801520985 8.12447384145328 1.6564556326087707 
H -1.45645719 2.46983421 0.29396311 6.581483495683564 15.853304419830682 -10.024484072991731 
H 1.24302553 2.49782062 -0.04535544 2.673828427853497 62.40956483358658 2.8231244834350777 
H 3.25006114 1.27455721 -0.22070126 22.49224450268269 7.556443029556368 -5.818908068710848 
H 3.4436919 -1.28412799 -0.24959827 -30.76841805897891 19.522059236338777 0.7576139517139548 
H 1.22149551 -2.47623954 0.32591104 -1.6257037354086121 -41.19332543968517 -0.4426527668242287 
C -1.12536332 -1.38678967 -0.0031954 -20.60582259451665 -24.563157635091894 7.063769959346604 
C -2.33693973 -0.75337544 -0.09606564 -7.874959305943649 -5.121772176191944 -4.819868066845771 
C -2.42046484 0.64961553 -0.10301504 -34.232555896441816 -25.37809061873289 -0.9228521854453424 
C -1.32610289 1.41939466 0.05238835 22.12888166013597 7.148677117921615 14.465032889288414 
C -0.08052783 0.78421096 0.12071426 67.0046972815114 -13.806857147253881 1.0675353971558472 
C 1.19366424 1.4728617 0.09142523 -9.295961869012766 -86.91600346220098 -11.460054447617702 
C 2.34286523 0.7067563 -0.118366 -3.3685310155848813 -13.24933389565044 0.2908498855502429 
C 2.42154029 -0.7512398 -0.16724535 34.22219656377916 17.525639382073795 22.860252206268743 
C 1.27399913 -1.44139921 0.1337149 -3.6723478542791383 62.181006127611546 -17.160669752008996 
C 0.05613799 -0.67515905 0.11331523 -3.63658586315731 8.55762581005256 2.6868024959237906 
18
Properties=species:S:1:pos:R:3:forces:R:3 energy=-241639.46169502995
H -1.24326621 -2.48043011 0.13896479 3.8674332037521673 -31.043979153775997 2.4420774916211694 
H -3.41566689 -1.29047298 0.17051252 1.173876271147233 -13.218372108125042 -7.140843584088111 
H -3.41054957 1.2388847 -0.1468271 -12.42371785020108 -4.359739855258548 -0.08999433086470598 
H -1.40110363 2.41070296 0.14730135 10.384372459872063 17.48708715402943 -1.2143756173500249 
H 1.06841079 2.54186016 -0.17106547 0.15978345691726145 12.332142819881325 7.314622100996745 
H 3.33380913 1.33681988 -0.19967484 6.254748293622653 14.154599169154412 5.039110962679098 
H 3.52239199 -0.97070949 0.24505502 2.6910477352704367 -15.375627242575579 -14.630778654427724 
H 1.26688431 -2.42059653 0.14654571 9.65042393878409 -30.6153866671007 0.6037003089771117 
C -1.23355265 -1.41848361 0.03020323 34.780165684096104 9.273558151980312 -3.790781731303232 
C -2.45535857 -0.79209801 -0.00702643 -0.45327535175921574 19.953589001746376 1.158592223678261 
C -2.50713278 0.6304148 -0.09596848 46.79557570244416 18.71054378895393 18.16457280598597 
C -1.30228783 1.336566 0.06994553 -2.882689460424287 -44.30494713971412 -13.820795287835022 
C 0.02568624 0.66001759 0.07670958 -66.0027603188296 51.56841884986798 -17.158143953179845 
C 1.14954837 1.47231498 -0.00446313 49.43798105838515 -27.9610080760527 -3.312920751785913 
C 2.39759647 0.80334595 -0.03726264 -3.4132412123239693 0.7721011274396455 -22.805011918636303 
C 2.53616779 -0.61584494 -0.07806235 -54.187522822244276 11.712540650669988 45.77363038124394 
C 1.30383512 -1.3570297 0.05025921 93.77526079475447 -11.307985942429289 -16.87677945018095 
C 0.10892753 -0.74992277 -0.03204596 -119.60746039744232 22.222465471308578 20.344119004469537 
18
Properties=species:S:1:pos:R:3:forces:R:3 energy=-241633.60848365873
H -1.01588828 -2.51567997 0.23330438 1.3441400144738955 -42.83633148998397 -0.11974895256471654 
H -3.2694833 -1.56701541 0.30297639 0.2788837653695157 6.694935738491106 -1.6715523203523874 
H -3.3590429 1.21209368 0.06239885 -16.115860615210263 -22.951510622369074 1.7836847443351191 
H -1.54309793 2.43099676 -0.15382608 14.44315923426377 -23.49993981236653 -6.526655873775319 
H 1.08815451 2.48898078 -0.67871059 7.0194261813109 -17.50021537883578 17.885866913773437 
H 3.39864809 1.3937067 -0.09429061 0.6655811944702309 7.945598665686581 -4.96810637005383 
H 3.56661776 -0.86777595 0.5347915 -29.883100667119983 -11.306356624311332 16.966557961615184 
H 1.22588433 -2.25651969 0.55328068 14.44786338635543 -3.5240668615134036 -2.8251747680245614 
C -1.15002273 -1.51187398 -0.07153789 -0.039536459512994275 34.34169175063991 26.83710467544914 
C -2.39442584 -0.92209327 0.10026618 -4.2645860170203065 32.091117243110155 -23.004757544822265 
C -2.49046461 0.53990297 -0.04570817 -19.226726947232578 -27.767667069339147 13.00328195759673 
C -1.37660269 1.30536878 -0.19164013 18.333602109603174 30.04367980995948 -6.400763182368432 
C -0.09374296 0.69367923 -0.23500364 51.08973372472331 31.47537966468952 8.551454797326318 
C 1.17642156 1.44176138 -0.24102315 7.417534766342558 3.0131902524180645 -31.804951350693774 
C 2.46274052 0.82768083 -0.04754356 -56.406961226554806 23.59347144741309 24.65858539799189 
C 2.49421511 -0.49785685 0.49116327 27.752706751015882 25.601405624040066 -57.840357991202445 
C 1.32666617 -1.19038441 0.26813868 -16.717680212007547 -65.12802993727428 23.431536911117387 
C 0.03752063 -0.71293734 -0.09083423 -0.13817898327018302 19.713647599545528 2.043993808831489 
18
Properties=species:S:1:pos:R:3:forces:R:3 energy=-241639.41896417429
H -1.13744236 -2.51262057 0.29962331 -12.497339549876083 1.186639263071241 14.387362796560494 
H -3.34385943 -1.28418034 0.39577286 12.311443127692762 18.97116591020659 -15.337689269833332 
H -3.37766542 1.2556092 -0.32372866 5.517364448962825 -4.4792646876454665 -6.591062558097588 
H -1.34216679 2.35715532 -0.88520715 23.354382650544714 -6.112634756120019 2.299503855552475 
H 1.13492773 2.37269143 -0.72885078 7.593189252146833 8.36846126506495 -7.496555509242498 
H 3.45396134 1.2980374 -0.12950888 -16.483712976239218 -9.504902351593675 12.644886519414003 
H 3.32500148 -1.14094695 0.63345006 -9.506115446524294 9.533530443299462 9.73261319552041 
H 1.33321674 -2.33936125 1.04389537 -17.4315515969564 10.197112343485212 -14.407518196888688 
C -1.24326794 -1.41628346 0.24145214 23.07984491931081 6.018717729233328 -17.90902955627568 
C -2.40752303 -0.70764301 0.09806176 -46.573629134624696 -3.2034611684421037 3.7348062346219275 
C -2.43129474 0.68005365 -0.32885265 30.76434594950506 -22.128689557126428 22.165975328293072 
C -1.17541947 1.30518661 -0.55165596 -113.51720327029172 26.354613064745045 -12.405491780715618 
C 0.00348311 0.66279515 -0.30281764 37.645607377398335 -36.402415122796114 -0.20897961467544487 
C 1.21803448 1.32116938 -0.44641083 77.38555496780148 9.63688423407459 46.38835764013291 
C 2.48144473 0.77492231 0.09837715 -63.27023256335087 20.76627366868312 -63.737486373606814 
C 2.37106847 -0.56886983 0.48132927 31.60178225914642 -31.99377912250417 10.592176925890378 
C 1.18390422 -1.32969595 0.5759412 38.23303347833261 19.595567097193307 -9.291448634109598 
C -0.00427952 -0.72217062 0.1089928 -8.20676389297856 -16.80381943864992 25.439578997459606 
18