18
Properties=species:S:1:pos:R:3:forces:R:3 energy=-241638.88744996375
H -1.21723092 -2.60931715 0.1836776 24.28265759563593 27.814306596920968 -4.891548577467573 
H -3.25029131 -1.50046035 0.04550045 -14.7373815948704 -11.179649273845465 -4.967330843089387 
H -3.48592188 1.01824097 -0.4093586 -9.501082822002738 1.239248213801393 3.457781836653401 
H -1.50774144 2.47863978 -0.19533919 10.607636474874239 -13.506116328354373 -5.879127618917752 
H 0.90081123 2.48450497 -0.55589038 14.90923315257839 31.71256521877818 -16.21224296405273 
H 3.15858124 1.40218156 -0.58036272 20.49369965710229 0.7233567675001974 6.328294100750675 
H 3.53539901 -1.00194044 0.57000384 -28.6553952353857 26.00337524239929 -17.969238434093167 
H 1.51728618 -2.45725861 0.57136936 -9.798196214320855 13.734759227623696 1.511568459678259 
C -1.09191227 -1.47530968 0.03482491 -46.6210145436448 -27.846417445040473 27.838735696300926 
C -2.36623789 -0.88879204 -0.03795832 24.663868230754264 53.33532659803652 -13.76774995495974 
C -2.51351042 0.56879124 -0.20616881 20.146868345765508 -38.29983670698995 8.548594596962042 
C -1.37428913 1.36585251 -0.1595931 -1.8689832238554904 -14.071001157014793 15.434484284399996 
C -0.08067922 0.74598188 0.05876235 25.588176604444765 -1.2027130673572146 -44.42478028557315 
C 1.12503047 1.46527877 -0.34468168 -45.31034314238871 -51.98633538966119 54.411698733631255 
C 2.32947099 0.81601521 -0.18797199 24.204789470793237 14.257143044154748 -10.913579490704958 
C 2.51814114 -0.51537981 0.28764815 -2.470035594435658 -38.90141321047269 12.00717449117977 
C 1.38150492 -1.3590644 0.41519339 11.330433534840465 45.76284771046767 -15.93120574766268 
C 0.10178701 -0.7078141 0.17107946 -17.264930695884733 -17.589446040946505 5.418471716964815 
18
Properties=species:S:1:pos:R:3:forces:R:3 energy=-241634.56121069705
H -1.07004182 -2.40840976 0.55060683 -24.62559822811898 -18.144211072795674 10.390793680839126 
H -3.45372554 -1.22440508 0.10338506 26.56435279071133 0.7937565913917255 -15.435919127866324 
H -3.28151602 1.31375193 -0.61822091 -30.151617984900568 -9.938127841097836 -11.140519550951437 
H -1.35861565 2.41220818 -0.62878059 11.877876121727192 18.783905793819738 -0.29141789383153993 
H 1.14982487 2.45477256 -0.54162229 3.4852063199969425 -15.885404595560765 -3.6770033877078907 
H 3.32167089 1.37633634 -0.22424585 3.1159819640171285 -14.043862456543469 0.523914711502147 
H 3.3622082 -1.01869202 0.3343633 30.963055168096343 -21.027220704902533 17.691082762846232 
H 1.37955202 -2.44909167 0.74659711 1.6995661567560638 6.685335331298243 1.4506267444540069 
C -1.23732698 -1.35606041 0.3375422 -9.826326261187093 -8.853450214893074 -29.6582085198209 
C -2.43793608 -0.7590958 -0.13195149 -13.468975227355408 4.357802223668487 30.501120951055224 
C -2.44746192 0.63487275 -0.51810766 20.768265848041317 -17.169893068109054 35.19028782215035 
C -1.29047042 1.36241904 -0.38485 57.01959906875976 -48.639188285008736 0.14358751306349357 
C 0.01321367 0.67265588 -0.08523898 -48.38280191653434 6.2372064428810505 -19.010619362246327 
C 1.22353919 1.35687095 -0.30815959 -25.74349307347968 48.77735659588949 4.25425870152591 
C 2.41423201 0.75468343 -0.10276199 9.973589819494887 -9.192102918471805 24.01443673311698 
C 2.39080294 -0.59013187 0.42352738 85.14377137753344 57.40512016338229 -46.80835055257864 
C 1.33496021 -1.3616227 0.53155448 -104.76357902856029 -32.93197108900767 2.2800243732208125 
C 0.03231374 -0.75289835 0.26181885 6.351128270823025 52.78494673241749 -0.41809559877124297 
18
Properties=species:S:1:pos:R:3:forces:R:3 energy=-241635.49614372285
H -1.15574744 -2.43909732 0.26766001 -0.5010129496301438 -39.03151082331065 -0.16609321070594935 
H -3.42348113 -1.40372622 -0.26036055 26.118946547417018 17.917026733413607 4.828786626936867 
H -3.4565126 1.08274554 -0.33527852 -42.060460637437345 29.048423763053943 -9.159464379986588 
H -1.55023338 2.44288944 -0.24826704 16.798160700615792 -11.77492195264475 7.287237935568786 
H 1.24649922 2.51264213 -0.32460647 10.790680997440607 8.021548132075958 -3.986985310023157 
H 3.33146377 1.29224032 -0.05539275 29.084675498267995 11.86953742812786 -1.5586194671632352 
H 3.38657796 -1.17466279 0.68332661 14.726718692019828 2.897576257842664 -13.75646093859659 
H 1.25994823 -2.56704099 0.21269391 4.319075679930285 15.87925967089755 4.247980964905479 
C -1.23669485 -1.40292839 0.07411776 24.266158081594245 70.7911092622581 -10.138065570293344 
C -2.47082132 -0.7675012 -0.1615727 -0.7572890367472005 -54.95886146675099 9.600251850304595 
C -2.52229316 0.62810904 -0.23745268 37.9122084083677 -35.02449106670604 9.983849543189631 
C -1.36193886 1.33912099 -0.10394114 38.54033544508267 58.554723863527705 -2.670778496121773 
C 0.01003851 0.82156173 0.07596007 -33.22909633953625 -45.58675565669721 -39.6852978416519 
C 1.29141545 1.43338671 -0.1596755 -72.10174983216699 28.52431576272121 16.194931162594155 
C 2.42294747 0.73539043 -0.00687446 37.11910164690948 -42.97251829389595 12.997016079186764 
C 2.50551798 -0.68720735 0.2522199 -28.462280720492036 -2.929848377624499 4.92394639428034 
C 1.34017823 -1.45032702 0.17362997 -48.76605572131588 55.71503108843025 3.6357534167826326 
C 0.05199484 -0.62828839 0.09869322 -13.798117646140815 -66.93964432471877 7.42201124079328 
18
Properties=species:S:1:pos:R:3:forces:R:3 energy=-241639.01133223594
H -1.18655294 -2.45365409 -0.09486788 12.523898383855643 -32.73318123458522 -2.375301536847895 
H -3.27093507 -1.42467474 -0.52464021 23.092967215011914 15.675573561373902 15.852604785413218 
H -3.33044353 1.09220257 -0.56702021 4.014431138145536 -0.24248617416673693 11.136233993689208 
H -1.36828099 2.37093899 0.29465364 -4.256415710009582 46.61772863352481 4.131392225429816 
H 1.15084973 2.64264191 0.12925374 -1.7460029089389275 -27.45807409632715 -1.8045160626598473 
H 3.27758305 1.30230307 -0.36498041 5.585309623287997 13.721942873752594 -2.689813295560979 
H 3.41914037 -1.18994605 -0.06939688 5.692883751167794 11.67598534526802 -6.4204193520360295 
H 1.2798382 -2.49417231 0.16159758 6.554848769157024 17.273123533495344 -14.700800201405404 
C -1.16585339 -1.38980113 -0.03069216 30.741062353256066 -20.60074372297428 12.328014976818286 
C -2.37169056 -0.80933152 -0.16128492 -56.670845541506516 -8.426841606828656 -37.38008544358133 
C -2.42405823 0.57578332 -0.18199723 -1.2641706147367158 50.37821263708872 31.647710294100314 
C -1.32834363 1.32210613 0.33500918 -17.737285908282924 -47.180119680524335 -43.775368946893664 
C -0.03322422 0.72809351 0.30928943 -0.18478412204165662 9.260974219034333 -15.851371531524808 
C 1.14626668 1.5041829 0.09281283 34.945100347639574 -7.687901964955757 0.23089240179462614 
C 2.33318249 0.78556709 -0.20246973 -0.17792770475050962 11.948919846446996 20.491542648618616 
C 2.46538741 -0.63885859 -0.11190622 -2.1162553717660995 3.3510105096221183 -5.776300332687292 
C 1.32605496 -1.38587784 -0.05222473 -46.62002912635512 -5.808494188280053 33.10126127325511 
C 0.05470388 -0.67890989 0.09040492 7.623218984329642 -29.765627305143596 1.8543229182570036 
18
Properties=species:S:1:pos:R:3:forces:R:3 energy=-241633.61557413172
H -0.98170053 -2.60633587 0.11389184 -19.440011092307 40.491085773381904 -6.436832301141316 
H -3.38764793 -1.13861286 -0.32540456 8.860498735193763 -23.218384392179136 11.487872623548698 
H -3.26061749 1.26116949 -0.31622237 -72.94963322522844 26.561526979157403 -4.67051034856977 
H -1.24776089 2.49192236 -0.01722686 -5.723762531219932 -2.7127114999698425 -9.043838527200723 
H 1.14133845 2.54371547 -0.26588561 9.993091832426435 4.944998275319728 9.863443645765125 
H 3.25350101 1.38034166 0.41206256 -10.880159496150066 -27.468201008064675 -2.6692831757820743 
H 3.29779364 -1.2941212 0.22659034 8.400994265477026 13.391052554744574 7.4392886534415 
H 1.2720516 -2.44797356 0.00580445 -0.07235524279728779 -52.50218770386785 -2.8527842394513647 
C -1.13712066 -1.45012523 0.00652791 -61.50027369762956 -44.11307417945619 5.842043437329021 
C -2.36846047 -0.77588201 -0.09695203 -5.59986439081334 41.608837134395976 -27.916754420416535 
C -2.40413421 0.70953898 -0.22423494 4.82979576064748 -113.9010571005228 16.470672502190318 
C -1.28781141 1.3888233 -0.13198803 93.3351563573593 49.667816893627304 2.1202539603350634 
C -0.00446726 0.74972498 -0.09866471 -17.28232669063761 -32.86857828168019 18.600075071899507 
C 1.19046558 1.47408546 -0.02838287 8.430697896872033 -36.41304600847844 6.401662034721716 
C 2.33990869 0.70954374 0.27414476 31.03449851450883 76.02601943868025 -14.751663623555036 
C 2.38122706 -0.68070624 0.22549612 30.554291980961438 -14.60590842961845 -1.7362673181467594 
C 1.24044075 -1.40655486 0.05104915 12.69511552730373 32.91034527058175 11.236516507953775 
C 0.0426628 -0.73440179 0.0370185 -14.685754503966788 62.20146865559081 -19.383896854563247 
18
Properties=species:S:1:pos:R:3:forces:R:3 energy=-241640.3740985862
H -1.07291238 -2.50443126 0.14131542 -2.0431601766357654 -54.55051094534029 1.064172408667834 
H -3.35483291 -1.3510142 -0.36112329 38.379788319411425 12.630812009412512 7.199416028861358 
H -3.41312068 1.04276051 -0.43142871 15.665937579549642 0.04000367300533464 8.489924914862977 
H -1.29542253 2.4922224 0.16820404 -5.143349375954952 1.8238579897501102 -5.776766360358585 
H 1.22482823 2.47147828 0.17565513 -9.518816775753882 14.270220278656092 6.852512382440739 
H 3.20304846 1.44957498 -0.44789588 -17.073597284202986 -19.46024712846636 26.100081320387464 
H 3.33020923 -1.13174957 -0.67498407 -8.467575745598666 7.0236631199102195 7.647678915056811 
H 1.48155262 -2.37798867 -0.03516781 -18.94598500028312 -10.430854273254694 4.151767002651623 
C -1.18010881 -1.46859404 0.10263321 28.858767102332017 40.266180582051305 -4.682984000158419 
C -2.33968252 -0.81166939 -0.17386118 -62.29427456815689 -0.7035594851280598 -2.258623860793741 
C -2.40538773 0.61521837 -0.17366877 -37.92613706238046 2.0211940275694893 -14.204381122509592 
C -1.29979674 1.40029973 0.05321682 -5.85022916001335 -6.3981709775606745 6.8321826664187 
C -0.08278871 0.71269359 0.18042745 40.820304084714294 8.317053551054952 12.5334833753749 
C 1.16798567 1.38679474 0.22601062 -0.44272273026597514 21.177649219583564 -8.905654800646355 
C 2.3664522 0.77368972 -0.0260872 40.33293163458261 20.387575788362426 -53.18396128472871 
C 2.4106626 -0.61871596 -0.3019931 59.08557799979427 39.6784580258554 13.683802125611384 
C 1.3249292 -1.29676752 0.06152087 -42.844939364960865 -56.13375398653511 -11.007464500423392 
C 0.02907009 -0.7005736 0.17483036 -12.5925182903563 -19.959571468926217 5.464813603463953 
18
Properties=species:S:1:pos:R:3:forces:R:3 energy=-241633.92308256731
H -1.01342024 -2.66798031 0.16101944 -3.5541214959381913 44.107394096643226 -2.441019739247647 
H -3.3377641 -1.47005596 0.08847846 23.847219364058905 4.995323334714226 -4.006940306594486 
H -3.35786559 1.21448882 -0.08076303 -43.25030873226054 -11.148787095287977 -0.20356515577690162 
H -1.41052731 2.32375037 -0.06184391 -4.1758107101914534 27.11276775085623 -13.239467864543151 
H 0.95682431 2.51842249 -0.44024673 7.0150623598595985 -13.057267646561925 8.67367262930995 
H 3.27950105 1.55594317 -0.16892255 -6.515352627559612 -4.571724340465948 -0.5990530762956856 
H 3.50513222 -1.07371472 0.17882109 -12.192610814797028 23.984938248763026 14.318516398239945 
H 1.54211396 -2.32267307 0.28758598 -6.655141955811009 -6.988601949026902 1.1016704418018102 
C -1.08576261 -1.50453767 0.06949907 -74.74999298512014 -33.66116328187793 -1.0155940636749026 
C -2.38122366 -0.865907 -0.02060215 -8.31054220768835 -52.35499292318075 9.195491995022845 
C -2.54173259 0.52424862 -0.14985619 26.902756471870287 5.706929801464168 -5.406223371375009 
C -1.41025887 1.27119191 -0.27730313 72.30843369729631 -25.741544769500194 42.073668312253815 
C -0.1038982 0.62942675 -0.03789606 6.459304795794468 129.99370882621 -39.0328496152722 
C 1.11784655 1.45013399 -0.13146464 -21.610375478427134 1.2744920011258793 -11.030713707862034 
C 2.38941447 0.8985322 -0.04978514 7.449430980852634 24.379472769160387 18.268408040105996 
C 2.54908767 -0.47167516 0.30232596 0.5490221005207315 -22.06154362618663 -43.02092706647923 
C 1.40559845 -1.23783726 0.21929627 -19.905067576163678 -10.284148050838777 13.679435932517993 
C 0.04717476 -0.70013733 0.07884668 56.38809362788316 -81.68525196018908 12.685491403689937 
18
Properties=species:S:1:pos:R:3:forces:R:3 energy=-241638.17694005443
H -1.14618629 -2.55027531 0.27301484 11.121795436626426 29.81217078122065 11.038275688675878 
H -3.13413574 -1.57971762 -0.04633307 -35.34896965131537 -11.747297065544345 3.6426892840838985 
H -3.59971023 0.86162527 -0.36762349 29.996123642708675 -0.2901704100905702 -6.733987197196059 
H -1.326315 2.34454389 -0.3457531 -15.253296757592523 35.695037293898174 -12.72813827180803 
H 1.08432461 2.50293175 -0.35648835 8.099141146435853 24.51798141068151 -2.330150214679491 
H 3.26108077 1.47272382 -0.04778586 25.969742985877065 11.319123173698479 -1.0295855662031357 
H 3.58859393 -0.91790113 0.33328245 -25.183007640901955 -5.360103233411574 -11.482966881879126 
H 1.31633437 -2.40597177 0.29603296 4.703676577420702 19.346204346777633 5.850459209296381 
C -1.11996444 -1.40020764 0.27591946 -65.02368717174632 -77.68707724277068 -12.991001594838666 
C -2.37795517 -0.83883414 0.05086629 36.84399472157322 -36.2809823043453 -2.8824570394991635 
C -2.52488752 0.47876037 -0.29552813 -32.52990660496472 52.74709295296955 8.267983090327704 
C -1.38303614 1.28447977 -0.3202345 16.848484574189243 -23.428189338302982 18.84120585261004 
C -0.10225609 0.71647276 -0.06472811 58.824412772502285 16.51394192635785 -14.776384434912444 
C 1.21252378 1.45457804 -0.162111 -95.07338502351703 -23.92179564967638 6.856940238228552 
C 2.40768224 0.82653239 -0.00749587 3.300543151702034 40.16639018352106 -11.317663427990178 
C 2.54686418 -0.53017665 0.11659536 -36.57593275907451 -67.94491818782555 34.52657548164948 
C 1.30559257 -1.27603426 0.25357919 72.44580157897066 -23.530330034147493 -11.112725091441373 
C 0.03175364 -0.69274091 0.17514567 36.834467835285245 40.07292258281102 -1.639070310245314 
18
Properties=species:S:1:pos:R:3:forces:R:3 energy=-241637.6365571659
H -1.2253406 -2.60552448 0.42201506 9.584511261732702 35.586516880823226 -17.398297617348025 
H -3.33944429 -1.43642483 -0.19069764 -21.396864841532825 -12.095114979991852 0.2884533412151671 
H -3.38143553 1.03765443 -0.38355455 -38.43470724954026 27.46458543969375 0.9359815960727342 
H -1.33459881 2.42592654 -0.04996495 -0.8019684021390782 24.3852228154151 -3.7470937123062695 
H 1.0763958 2.59949712 -0.31571997 11.90165301953155 -24.725217868418525 14.93049729558511 
H 3.39647017 1.41111243 0.10010384 17.783542415666716 1.1852233927416616 -10.696792430259034 
H 3.3123904 -1.26300404 -0.0259739 19.93534040166103 -3.890699012685461 -2.1776512564511803 
H 1.2409177 -2.42295234 0.09580068 3.3349687225044016 10.35951172163116 -7.36091418301193 
C -1.22768835 -1.47094592 0.16369304 12.252690438120439 -32.78609612714538 25.07347690829535 
C -2.43533717 -0.87950613 -0.05521522 19.970076657577593 78.20843532409648 11.204619107622648 
C -2.4670778 0.63280976 -0.05519824 35.68553056656799 -78.31207608356485 -16.827644955117186 
C -1.29530262 1.3532043 -0.01832755 23.47686254897964 -23.40464486142375 -0.7477040452279439 
C 0.03920316 0.71291967 0.00214628 -54.948850765476024 34.53745301810948 21.35512275487325 
C 1.2346387 1.49316953 -0.07112068 16.548916532304766 -7.938658055101128 -23.467653462732134 
C 2.50830107 0.82374871 -0.10031389 -67.0060040563047 -26.453885259477953 22.532552931696987 
C 2.42875008 -0.6440166 -0.03843052 15.069841940944048 55.157545783100296 -8.019895097537068 
C 1.2273247 -1.30693522 -0.00856219 20.125330278097035 -53.26860874849452 32.984194647897695 
C 0.00856648 -0.69315627 0.21058281 -23.080868282873976 -4.009493379307706 -38.86125063744712 
18
Properties=species:S:1:pos:R:3:forces:R:3 energy=-241638.93701773472
H -1.13748529 -2.3225459 0.68283032 -10.454938298710108 -6.477316231670502 10.384590650944629 
H -3.50412985 -1.14532673 0.39229887 9.950810197190679 -2.734106083291682 4.319772942705656 
H -3.33684246 0.94780976 -0.83358004 -1.7468887172606997 8.609575444280829 5.4657919058273565 
H -1.11390563 2.12712573 -1.24776818 -16.935696968878744 7.718408397199279 -6.619289842289644 
H 1.36562594 2.28266348 -1.04489997 -5.133620900089063 16.952158536646937 -4.492909930428107 
H 3.24919315 1.28828368 -0.31913692 33.74869229078686 -0.36581867793412487 6.514666037173661 
H 3.30184165 -0.97811989 1.00354302 22.275986318423524 -4.923839670386152 -4.020309253073281 
H 1.37026641 -2.25561404 0.93157405 -10.029238029567345 -60.53107013911671 25.269833457930282 
C -1.27519682 -1.2645362 0.42789048 31.983372356999645 -32.54822635431286 22.484236653155346 
C -2.50858379 -0.67573613 0.27895064 23.301159444512454 2.6601167790922493 -23.269174293423884 
C -2.39769485 0.56010875 -0.40350949 -62.57149344077705 10.711965010549632 -12.93714041708336 
C -1.24518073 1.18344033 -0.71571841 48.892363450089064 14.100426120463863 2.495958828334268 
C 0.0190617 0.64310554 -0.31655174 6.425626292251427 55.732524320508944 -9.92996939229758 
C 1.25527872 1.3626229 -0.49233535 -6.48194567703623 -68.1877411351695 9.196752522795325 
C 2.4057994 0.66131774 -0.08969734 -9.375858933666105 91.30777115810577 -30.311836638141912 
C 2.44095711 -0.5531351 0.51085418 -22.403252190602323 -47.50332825079282 14.658005105656493 
C 1.26399162 -1.29205722 0.57544831 -13.17270139633825 73.24703832952402 -11.756471762981493 
C 0.02524819 -0.62045424 0.261236 -18.27237579732775 -57.76853755369716 2.5474957968383394 
18
Properties=species:S:1:pos:R:3:forces:R:3 energy=-241646.76488543884
H -1.21945874 -2.5308205 -0.11152022 9.750258212693058 -37.16999471458527 -0.3792623311388523 
H -3.30242339 -1.49413223 -0.04850374 11.10982220151942 22.143683078438993 3.8274947509043935 
H -3.41936298 1.10745889 -0.12924502 -47.075172146262645 22.837624369058492 4.917021199368493 
H -1.38494279 2.48141195 0.14967923 6.359217942002583 -24.55378016225578 -5.977899397169014 
H 1.12232212 2.55659108 0.20506742 7.997389399894613 -5.086389647805012 -5.114577799902531 
H 3.37007052 1.24666701 0.18412496 36.383166875568534 31.04217551996419 5.720973480118449 
H 3.40917515 -1.1268145 -0.08790044 13.19533990593792 -6.468586217125808 7.814967433377682 
H 1.28850806 -2.44114946 -0.35444169 3.3113827418885395 7.144594336058346 7.701709665221775 
C -1.16625757 -1.47888358 -0.01287232 -22.22927919904205 82.05815710469737 -26.72474101636233 
C -2.40937383 -0.79158824 0.00205751 -5.9932676379322904 -51.97413803437638 9.388517573338017 
C -2.5346951 0.6037924 0.10927103 98.74310391253599 -2.6528180505507395 -26.124318316757883 
C -1.29787871 1.34835508 0.04232846 -34.412793580591 16.891486002800253 15.989750918551858 
C -0.00868791 0.73758197 -0.03370356 -11.157055825445564 4.581214466301481 -0.8183552631813406 
C 1.23371653 1.46040032 0.06135893 -35.43837937240412 19.929413668070378 8.263420050940583 
C 2.42282941 0.79918133 0.12502746 -14.011623539750937 -39.92551909761972 -3.5386951499436337 
C 2.45705034 -0.62543405 0.04805172 -21.57198333622406 -3.9159060106719563 -23.273150351392967 
C 1.28043264 -1.34803907 -0.14402991 25.381524756483696 -5.890668029342769 -9.91662534806076 
C 0.03429516 -0.68851602 -0.18126425 -20.341652496692713 -28.990549766877113 38.243769902088054 
18
Properties=species:S:1:pos:R:3:forces:R:3 energy=-241638.13165337464
H -1.170516 -2.51301787 -0.4467757 10.704699484997423 3.977354071483085 -1.1176754684670838 
H -3.39214566 -1.40955786 -0.56733613 26.878603668794174 7.332694013746154 15.069655767039741 
H -3.34862711 1.08785182 0.26511387 -44.137109586248705 12.933092024030442 -3.02177559679508 
H -1.2586945 2.44076691 0.15428056 -9.457948581434515 -6.330030142762823 9.331631366092962 
H 1.00591162 2.63577159 0.42934393 4.200048892382918 -44.34475752388887 -14.079395584203313 
H 3.24968339 1.57556191 -0.18375896 -15.875082023350558 -18.54135795695858 7.96580031303559 
H 3.49360693 -0.86151953 -0.38404823 15.999057242125174 -18.919126153578784 1.0111567213187158 
H 1.39981146 -2.43167276 0.15511449 8.316320713648185 11.668688988368602 -20.719353101513263 
C -1.17293616 -1.42233383 -0.22631073 9.9560432254691 -57.77008979344709 12.78549406418752 
C -2.44256026 -0.88355106 -0.21479978 -6.4904112534875456 43.355740081509225 0.2560223214130951 
C -2.47733919 0.51887991 0.09328837 62.759250416182404 27.95655057473872 -0.2938535702611518 
C -1.27296952 1.33380179 0.20157018 -46.853704650146 -57.538673258749895 -13.432488699574137 
C -0.02133481 0.66885713 0.14404749 -21.391424294571255 9.506570801806168 21.612804039930467 
C 1.10973498 1.48852103 0.20087303 36.916489891253995 31.345877334016933 2.3306684184768325 
C 2.34977695 0.89451774 -0.03619698 17.821455486166982 17.181373001660695 -6.1344431909871036 
C 2.49451963 -0.53316176 -0.16078309 -22.705330615642335 37.68954086135194 -0.18301724868229843 
C 1.35996386 -1.32725425 -0.06937668 10.41973245765911 -41.79112035985045 31.988276912848175 
C 0.07491272 -0.78226632 0.11624996 -37.06069165961961 42.28767462234557 -43.369506278038614 
18
Properties=species:S:1:pos:R:3:forces:R:3 energy=-241636.35113501793
H -1.28390381 -2.38360974 0.79242402 7.305289689360404 12.603419543237226 1.2897428456055475 
H -3.4048237 -1.15955521 0.45731292 -13.69338830295169 -10.091672693489203 5.932263074192572 
H -3.32208346 1.14987776 -0.85691871 18.452873176286133 -22.73847905717757 27.211841913474363 
H -1.36264523 2.19210121 -1.02950639 14.82726327273568 43.883999641325936 -21.735977643677618 
H 0.9817405 2.29150108 -1.00913748 28.655992889193165 -19.567541402579167 14.088388851020344 
H 3.46889433 1.31718053 -0.17506154 -18.80059622504992 -9.400805051022358 -3.567658829005596 
H 3.23367983 -0.91913147 0.90530356 33.29432242620168 -7.7691971126229795 13.36535344102376 
H 1.31635266 -2.25763028 1.29170261 -11.556606368869826 24.58875121073956 -21.70475378970093 
C -1.23029822 -1.32567838 0.42756854 -21.31502303036314 -17.064207953156412 6.496119796005632 
C -2.46053916 -0.67673644 0.26290713 37.57144968661029 9.18779957389388 -31.444791410793783 
C -2.41547154 0.59349794 -0.39906887 -34.58060623181445 14.91505790555904 -8.43271260683012 
C -1.21926242 1.23267296 -0.63011384 -19.620227431677343 -42.00484444453315 4.999484380766566 
C 0.01092615 0.59194266 -0.37413945 30.256216887774574 11.009773294001024 6.264410363509934 
C 1.22820342 1.27777116 -0.52357833 10.331954426330405 51.30444204087463 -29.722351951870834 
C 2.49227753 0.75895523 -0.13562673 -40.79778297139823 35.0910120699543 -9.105945904513733 
C 2.36230953 -0.45312755 0.50793317 -7.76504199567587 -73.12991715639845 21.616429094869765 
C 1.201424 -1.29839634 0.68013141 71.97219769701046 32.55576580452682 -4.104979247438981 
C 0.06172361 -0.72026446 0.15247336 -84.53828759370231 -33.37335502731209 28.555136437542068 
18
Properties=species:S:1:pos:R:3:forces:R:3 energy=-241644.96556987707
H -1.17813898 -2.68695782 0.26720102 11.758856449106105 1.8031156080038728 4.503294165332738 
H -3.34729573 -1.51227215 0.00184572 -3.950842670345386 -10.175228016071149 -4.252434908756318 
H -3.53356122 0.87652522 -0.38284893 24.994534429584483 -0.07690168068975714 -7.656910531904195 
H -1.47070469 2.41049532 -0.46487546 6.318573925632111 -39.550503191648566 16.196906740457706 
H 1.01360553 2.64311825 -0.07136069 -2.5627371547496356 7.933401310401776 -3.8609799656168473 
H 3.33907853 1.59706792 -0.18407731 -19.278076556011293 -9.611143616617149 4.139791395902523 
H 3.36730639 -1.07148846 0.06539474 45.46967005820305 0.702830205184432 -5.126469213357326 
H 1.46036446 -2.35164836 0.34988577 9.697734641078258 6.227971268570525 -0.2981462424496596 
C -1.18420723 -1.58706787 0.17895354 32.10033937338916 18.93066300654066 -8.759956526120002 
C -2.39053938 -0.99315625 -0.06211099 -6.7198605110685214 67.65435171350543 -1.87453642381648 
C -2.47213541 0.48723782 -0.30534894 -34.6971439809851 -57.20722916131312 23.686899916028604 
C -1.36446823 1.27358279 -0.19517392 18.60395270672172 50.353772865319335 -8.44095287728259 
C -0.03880832 0.73610951 0.09941283 -31.728022396119947 -24.54790086150699 -38.85764811310771 
C 1.1256309 1.55875046 -0.04716586 10.55281715371332 -26.430202041536276 19.19622644409429 
C 2.40346872 0.9762401 -0.04331261 11.391244809749596 0.3848416191628659 -15.796777516362734 
C 2.51315061 -0.44571279 0.00240537 -40.37193803208779 1.9324507379088927 27.495051554021686 
C 1.39709717 -1.24680303 0.2476184 -44.20385115221163 -8.114893593218213 -18.974051012812843 
C 0.04013671 -0.75119489 0.15992125 12.624748906401505 19.790601456361337 18.680690744107057 
18
Properties=species:S:1:pos:R:3:forces:R:3 energy=-241627.95099259034
H -0.99705525 -2.50482527 -0.03845658 5.479689728492912 -30.87167461242822 -3.486125331308018 
H -3.29158187 -1.38976404 -0.43120589 -29.763198743640263 -31.676306368637846 -0.6136718781575431 
H -3.41163489 1.12498295 -0.37873169 23.257471425515494 -30.311974193383318 7.969540392616407 
H -1.32665187 2.43267324 0.05252096 -18.240796197037103 -32.934622584867746 3.347812350259575 
H 1.1390826 2.61589515 0.40509246 5.3409368078362 -15.312539191257072 -3.027188869872577 
H 3.1182663 1.52553466 0.16366487 46.37801253732281 6.538371785715224 -13.744832777414132 
H 3.33748545 -1.20522001 -0.6883198 -2.6567016144781883 24.87653812052657 21.033998858004608 
H 1.37879655 -2.3494879 0.02399945 -3.3218345685928234 -89.3320142355769 -3.9286867899116618 
C -1.09069078 -1.4440142 -0.01800839 -62.58190257792365 40.91794814715029 15.848798299853796 
C -2.44387515 -0.87480054 -0.06942895 97.93089594565994 -28.989438652556498 -17.292959947962018 
C -2.46689701 0.48706678 -0.15000713 -40.31938837240997 92.07389574747081 10.1203494038579 
C -1.35704229 1.2783369 0.11898784 24.593206340411445 57.337618486128534 -11.588643696084441 
C -0.03926622 0.77789759 0.20131718 -13.163895489246576 -17.359843812450528 -6.010744268516332 
C 1.16748473 1.51041194 0.21315304 -4.414113307705965 -4.3212469182665165 -1.8140868243265453 
C 2.3487017 0.82532986 -0.06480375 -5.046965841291439 4.012154361736163 16.25107978914826 
C 2.48894122 -0.60293929 -0.23934042 -24.771501649686385 -6.006040116424672 -6.630609690000002 
C 1.31411582 -1.34062376 -0.0210181 27.536112979400542 108.76675672497407 -8.374680896454102 
C 0.08300873 -0.6376276 0.10400852 -26.236027402626995 -47.40758387367339 1.9406518762668261 
18
Properties=species:S:1:pos:R:3:forces:R:3 energy=-241641.1889871464
H -1.11389185 -2.47136984 0.14009008 0.11389929734208976 -21.65716441946082 4.090284553030144 
H -3.35014058 -1.24195993 0.1556752 -1.0848009515936026 -9.974553892005732 -8.62321357213719 
H -3.41335421 1.03257326 -0.1915276 -21.370074772449186 26.955929873418594 -3.2251771092675576 
H -1.32828751 2.43259188 -0.36128845 6.9432051619018615 33.16859930720445 3.140856932110589 
H 1.03269696 2.5048463 -0.32761779 13.785622649773327 36.80959405301283 2.34219459904929 
H 3.32313425 1.3705582 0.24660889 -35.3861226105248 -26.284338937884456 -6.336497610750701 
H 3.43747177 -1.12735531 0.35489608 -4.638599904207132 -0.9529566243540849 4.339493146709768 
H 1.37171425 -2.48915783 -0.05732432 -9.707505806501825 -29.47516281143348 7.302963108467074 
C -1.13671715 -1.4016118 0.02772433 -69.89111614912709 3.444257547617508 -12.458020095614605 
C -2.40144694 -0.74307045 -0.07118722 41.10552843521971 -22.128569789200725 17.979814772007337 
C -2.41797474 0.64609058 -0.18516098 1.129097296787445 -9.303388666227303 7.095757482077266 
C -1.24617152 1.38921091 -0.16855429 -37.971377321127356 -30.2935939671618 -22.084681366446897 
C -0.04138556 0.7034359 -0.14238081 55.88344613674534 35.64227655807406 20.518643402816448 
C 1.18364018 1.4926643 -0.04516371 -33.63890660665525 -70.84352492415766 -15.732331699945927 
C 2.31919405 0.75859097 0.144776 80.92381729306314 22.532558860802222 23.806849272350185 
C 2.42302315 -0.69271699 0.31361461 -13.80648361362422 27.813953222249097 -19.31299068508484 
C 1.26463068 -1.44738393 0.15825427 36.25837462609284 54.79972783976724 -10.129443465463885 
C 0.05662818 -0.70610968 -0.02847409 -8.648003161115302 -20.253645601902026 7.285497150272453 
18
Properties=species:S:1:pos:R:3:forces:R:3 energy=-241633.43281714298
H -1.14260706 -2.56647161 0.37294805 10.334439907243972 -0.9951694819691405 -0.7962705320104096 
H -3.25471603 -1.67174006 -0.266371 25.435741680552972 33.16399002079651 6.131111033846301 
H -3.39909038 0.78067281 -0.5835477 -14.768480937637195 21.651060998534234 -2.6926995839882797 
H -1.43259856 2.45044606 -0.18179919 -6.592476056785075 -12.940307745098693 -1.73958643125605 
H 1.11531507 2.59862583 -0.31330642 -12.502808556542766 23.69539513800608 -1.0374321440681513 
H 3.31353832 1.36405738 -0.5221336 -3.751004550117788 3.6578772800481 4.309999405639998 
H 3.46301743 -0.81110317 0.06828742 11.1190206153775 -26.649364301538434 11.631272776886837 
H 1.4467146 -2.35465623 0.57638851 -0.7740423164928464 6.753046898877244 -11.16378535988473 
C -1.14192796 -1.47696632 0.19032216 -27.179313656346473 -57.314454657805236 1.2340922638909975 
C -2.35953708 -0.94755112 -0.12492338 -11.94388840774649 -4.047788284184963 -3.7401981629205863 
C -2.40471971 0.47156194 -0.29513422 -42.641453659194084 -16.35733528402429 -2.7907290382644026 
C -1.37341384 1.33792839 -0.10425904 55.25278618627493 -4.707867268999205 4.295700775460709 
C -0.00836815 0.76714536 0.06826471 -95.47913029608848 -46.41833993947386 -3.4928513082840444 
C 1.08501063 1.55118528 -0.08343458 114.67724100982574 -38.113915382564656 -23.29161714255087 
C 2.39283301 0.8405959 -0.2130101 -66.64004782312918 73.63878972792511 19.62481774494854 
C 2.44465332 -0.4617443 0.18669378 10.201105002948943 -28.652532663379333 -31.489552597837875 
C 1.3137213 -1.29042078 0.26206258 35.19613510573088 -28.786352568482403 35.29596107889253 
C 0.04256145 -0.77409694 0.18476148 20.056175566304386 102.42327107079606 -0.2882315926794624 
18