18
Properties=species:S:1:pos:R:3:forces:R:3 energy=-241642.5865666756
H -1.16873219 -2.60154084 0.33486744 4.673593483290798 36.604101938035285 -3.999060525740167 
H -3.30061159 -1.46040574 0.00173588 -27.915045652288455 -8.999063110304075 -5.103288783539384 
H -3.4763937 1.09439308 -0.36082852 4.529599233608337 -4.068667035351554 -5.9151362608172615 
H -1.42409502 2.46850274 -0.1256487 -1.280047572728962 -5.9399092483007205 -6.666132145270426 
H 1.27690415 2.48104876 -0.23750222 3.1748235901679425 31.113512142482495 -3.2861887879335567 
H 3.47544743 1.36030825 0.21146758 -19.101176958108145 -14.911703217818351 -2.2929201771020344 
H 3.38372168 -1.18112075 0.26555679 19.893793975474136 -21.29991567023011 -3.304463476081925 
H 1.48384312 -2.3474254 0.03259401 -30.372923023533843 -23.736988997034835 3.638510450715859 
C -1.19446568 -1.45976007 0.16581789 -20.48047893825431 4.7994019814033795 -6.58922334965439 
C -2.43987867 -0.83267062 -0.08295537 49.90309564747311 4.597706865416886 4.317840054399782 
C -2.49456749 0.58064114 -0.32398795 1.459925953101045 -2.919634900950571 30.96310853004344 
C -1.34410051 1.36045264 -0.15761503 -3.551583838898576 19.24011486684812 -9.208438789209067 
C -0.0563018 0.78892624 -0.01695421 57.79235476941709 -20.83500859982529 -7.179504907668752 
C 1.29722602 1.4214509 -0.11027045 -34.55767719605837 -18.258313145536725 31.21457136953255 
C 2.51499574 0.75999977 0.15520416 -21.452222525448878 17.050716867109823 -25.229959039419022 
C 2.45976072 -0.66168266 0.12590842 -8.492744797311671 47.387702398006944 17.948790135966473 
C 1.230955 -1.29479461 0.10016191 64.46633586419463 -15.92992387511136 3.3770297950254986 
C 0.00539798 -0.64693344 0.13448238 -38.689620828274826 -23.894131630481436 -12.685532907426566 
18
Properties=species:S:1:pos:R:3:forces:R:3 energy=-241636.82061303692
H -1.109807 -2.6099787 -0.10067842 2.5137663029902964 21.60919084320163 15.355655644509596 
H -3.32610848 -1.35412584 0.49609087 -5.602323783663883 -3.1070634039260323 -1.1034112270981444 
H -3.30998724 1.0937815 0.40236499 -15.580948599322417 12.267942468421154 -12.0047067975819 
H -1.20232826 2.49981477 -0.48965437 -14.05951410853687 -5.714155009100792 12.403952584997198 
H 1.26299673 2.59348019 -0.11771147 -7.403933398938639 4.1305716372656045 3.0283960356979636 
H 3.34328473 1.19048868 0.45407621 -2.6771487267838348 10.144497463649827 -15.902850394797596 
H 3.31494452 -1.18680925 0.07221295 -9.230297028560107 12.03616662994685 14.548379507366166 
H 1.10746373 -2.51548752 0.2064562 20.060411319082657 25.93523677924353 -16.85838855157002 
C -1.16856404 -1.49027641 0.08037879 -11.800152667052176 6.948448862569703 -27.456049899800686 
C -2.39461313 -0.84666439 0.23942118 32.04578686196371 53.4588322316767 -11.426608364999785 
C -2.39242703 0.62758061 0.05459609 3.9189666147930997 -20.305705517487624 19.860199665225398 
C -1.25341183 1.42242978 -0.21927669 -19.280448198104395 -30.422937397814145 0.42816440527749156 
C -0.01129534 0.7480176 -0.18263221 18.397567668496126 16.268352458512293 -6.397789143183687 
C 1.23017913 1.49856779 -0.07937666 -16.602228674915526 -10.93346452383454 -11.24002653825156 
C 2.38487018 0.78844973 0.07320039 13.61471144815525 -22.745424411047207 23.972346015069718 
C 2.32745781 -0.63967221 0.11272815 104.77427039111596 -3.681562869631872 -15.678254702760148 
C 1.25664272 -1.40677576 -0.03796704 -83.23579835766739 -19.936581956296767 13.344504335383332 
C 0.01441782 -0.67741757 -0.11849312 -9.852688248872926 -45.95234428534831 15.126487426516654 
18
Properties=species:S:1:pos:R:3:forces:R:3 energy=-241636.80915387496
H -1.07658367 -2.6248143 0.33517516 -18.950450802344427 36.84586594718468 -18.422314567916562 
H -3.24557039 -1.33404862 -0.4329384 5.68100893920765 -1.2502407749029034 0.7769333482043331 
H -3.32002142 1.16775667 -0.46434291 -21.75881299957101 -1.8704512703111182 -2.913367836719559 
H -1.41498353 2.46817669 0.17907107 5.868041377953563 -0.9530337027221106 3.568550566432601 
H 0.96586372 2.66049931 0.14653953 22.993362990385975 -44.888541852847 1.8579005403544424 
H 3.36803386 1.30990888 -0.16971443 49.86646326370312 32.08240975916534 -10.166909481429606 
H 3.26502437 -1.02493963 -0.64584357 27.70262952822011 -23.46184768288823 -1.702790404181631 
H 1.40527038 -2.47996515 -0.04629336 -8.166942836414393 1.3742491966668242 3.635197266711801 
C -1.20404753 -1.48694205 0.11196135 52.64811958514037 -55.02474212663412 20.782862119303292 
C -2.29712625 -0.78993333 -0.2282124 -90.11889543654074 -4.680243567719844 -6.713925476730543 
C -2.43089176 0.61756647 -0.20204321 31.91523745130703 3.9189061379197256 9.878379061846411 
C -1.3300273 1.36789459 0.16509805 30.13797867122316 -12.363014485007183 -14.836992934422618 
C -0.02743059 0.70483238 0.21780721 0.05628025269026789 6.203267058707768 -4.700570912099789 
C 1.19802916 1.50199538 0.12858157 -14.254089554959885 10.831560992199343 -2.382927551998253 
C 2.43758167 0.8570169 -0.12800697 -104.3289720575369 -56.15192076496825 14.107817343047005 
C 2.36918249 -0.61589985 -0.24148748 9.669398261349922 63.62378036509531 15.910362571127486 
C 1.2780728 -1.38812955 0.07969873 10.844688031184642 -7.4144789055056 -21.86776860897004 
C 0.01111068 -0.78036575 0.18882695 10.194956520822586 53.17847449074633 13.189568514904366 
18
Properties=species:S:1:pos:R:3:forces:R:3 energy=-241631.18245993555
H -0.99351271 -2.58422485 0.28812416 -9.630748795979745 31.870014979875833 3.0305660882131487 
H -3.30598113 -1.38859785 -0.20042546 -2.861883044341536 -23.425973038766983 10.720347579527687 
H -3.45255824 0.96107428 -0.4387006 8.498831616743606 -11.286106358299412 7.936082451788024 
H -1.36259601 2.34667692 -0.33507143 -15.322353046238312 26.218634965337255 -3.9601442506345172 
H 1.0327181 2.54489483 -0.41469911 6.452048756810634 37.69845467815884 -4.932560198362474 
H 3.30570452 1.4153193 -0.4184665 17.034716583728734 -2.4217691203779688 11.55031677403893 
H 3.38551439 -0.89124264 0.28545482 11.383414833379234 -20.267926444765617 9.215212199026956 
H 1.20824389 -2.31458882 0.6897954 19.77104489566165 -25.645869170001475 -2.4923883211631086 
C -1.1431801 -1.44101977 0.21682003 48.411075447747216 -58.322881619074806 0.9444732605870725 
C -2.36112071 -0.89244978 0.01201463 -29.919306155313226 2.0718973638778366 -18.806212273526373 
C -2.46687977 0.47347675 -0.21320432 -40.945578963355935 40.40742372690577 -3.4545018556386458 
C -1.38637743 1.28453122 -0.19447904 82.67717229249067 -5.728791598278348 -18.50184165640338 
C -0.02530192 0.72793423 -0.19683035 -9.323484775503172 -7.0413354109669415 59.47687641455559 
C 1.18932908 1.52699348 -0.15723447 -12.330534846542202 -53.68088908085349 -21.649851461066753 
C 2.42842644 0.8654906 -0.08669002 -70.3089923710047 4.508173818939288 -0.09506727330184313 
C 2.35875458 -0.53562562 0.24156689 150.50633537303628 69.54271955400885 -28.08996492904387 
C 1.33657012 -1.32990593 0.27190439 -105.03078008497921 -20.439929787567568 27.80686201239073 
C 0.08510079 -0.68692019 0.15183424 -49.06097890216102 15.94415372766995 -28.698204560987172 
18
Properties=species:S:1:pos:R:3:forces:R:3 energy=-241633.97635254875
H -1.16595633 -2.44675332 0.15674947 -6.9077668999257416 -36.102534024155354 -1.5953822912483513 
H -3.33660339 -1.24990371 -0.46944938 -34.08682916221035 -29.709267602443212 0.2471547516270008 
H -3.39242972 1.04837805 -0.2478667 -62.08046866182198 45.62983179203415 -4.5595198702548645 
H -1.13243594 2.37996542 0.04392572 -11.926683330182106 25.09208125469466 -13.032902581518481 
H 1.23233048 2.53674081 -0.07966211 -8.571829574548124 20.49784054419684 -6.746822524203909 
H 3.31453269 1.35463429 -0.13478862 2.394701569169438 -1.0911344218032215 12.107422616633986 
H 3.31169373 -1.24757529 -0.05475069 22.751980815613575 6.672699222226216 6.37652381435592 
H 1.40506371 -2.44861452 0.37435821 -3.7387443463175174 -24.190986513811403 0.1532566978770551 
C -1.26603926 -1.39561262 0.0253474 40.30754202015494 -30.198155531872388 22.466023627701393 
C -2.43440914 -0.78150206 -0.19360518 -11.22080082162386 56.542478041575485 -14.992768316202543 
C -2.45777812 0.63390036 -0.22803323 107.84984550297195 -17.605314698191428 2.1357016511084588 
C -1.19906896 1.32833008 -0.19387009 -56.96236778759015 -5.668464138356207 16.463588407258236 
C 0.05359062 0.70403457 -0.06857728 -70.31559858005504 -40.30311416436713 20.756935327941545 
C 1.20903794 1.46215368 -0.04292125 21.831180100578766 -8.484371714901986 14.285651367934834 
C 2.38749713 0.79866927 0.09684085 46.402289851608806 -14.152611733080397 -28.235990490179066 
C 2.44315013 -0.62621754 0.13712232 -20.425353675263388 -3.8172623010937206 4.753625731543443 
C 1.29749677 -1.38306135 0.29189073 -52.46711941805825 34.89830192003751 -2.8485342568205323 
C -0.05329027 -0.73455745 0.21038789 97.16602239749902 21.98998406931158 -27.733964849375173 
18
Properties=species:S:1:pos:R:3:forces:R:3 energy=-241630.80147734372
H -1.40628324 -2.59030528 0.36207974 15.216359617813568 23.145378133627297 -11.378169946890347 
H -3.42834592 -1.16436179 -0.33675466 15.74375352826629 -6.6437438439115795 5.3755900562795045 
H -3.2554197 1.28659154 -0.5522589 -3.303258681898631 -22.032268076189425 3.7104601427152275 
H -1.49136063 2.43561709 -0.09121325 17.272671735676607 49.62646019880786 2.6277569085529704 
H 1.11672045 2.50968935 0.04452929 1.4437383099946028 2.9239501037389637 -5.002210583352583 
H 3.41664791 1.4117714 -0.09146373 -31.379509590539158 -28.656892927367494 15.697869368691117 
H 3.31656781 -1.02344535 0.38780178 73.03620053326863 -49.93249333703811 12.156731427391591 
H 1.5404471 -2.35769052 0.47866495 -26.37389570078298 -8.747447299899957 -9.734426315900583 
C -1.25533014 -1.49614761 0.0951391 -27.948337578170317 11.939951481871946 -10.305523661023871 
C -2.40727959 -0.72175055 -0.20020685 -18.133140247505093 -72.19131370999179 4.407151352341675 
C -2.38237918 0.62957354 -0.31059033 0.7246220385568652 89.12542642195234 4.7307832607237685 
C -1.25077331 1.41494624 -0.04311569 2.678495819492714 -91.84321086435932 -26.022193036586977 
C -0.00123898 0.67053715 -0.02255653 -34.42854128408918 42.57794464140406 10.046830870613949 
C 1.20385646 1.41600597 0.00998128 31.52877244313144 -6.214503898944867 5.004773142634176 
C 2.45266005 0.77383128 0.07778328 -9.717316104019925 51.024447161184504 -25.233119252508075 
C 2.40278897 -0.63430613 0.1810865 19.952045062743768 93.92566440719355 -11.769281001926316 
C 1.28204264 -1.32570417 0.17177594 -45.367768898209945 -67.32671765909123 17.511449847430786 
C -0.02830755 -0.76960594 0.02385337 19.0551101820918 -10.700629747165666 18.175528606635037 
18
Properties=species:S:1:pos:R:3:forces:R:3 energy=-241644.54711007074
H -1.24476531 -2.66022621 0.12304257 10.562760263188633 49.48266279541912 10.805235764965952 
H -3.33845543 -1.22953516 -0.37958906 9.579894860398486 -15.646571936038448 6.8779921192679385 
H -3.46556086 1.13802908 -0.23383272 14.395952884221696 -4.949976352073141 -5.823358455098546 
H -1.3528623 2.55120591 -0.04152708 7.610625564815291 -32.87430698315608 4.595475150207281 
H 1.11657754 2.53329567 -0.10513761 5.306717569895932 26.786173661499856 -1.1093284741204248 
H 3.40558374 1.18586921 -0.28268857 -4.514187117466338 13.855737876613684 -4.660839977935161 
H 3.37763923 -1.18619721 -0.15101902 -3.228900587353722 5.476854430370613 -4.6070167464533425 
H 1.17481897 -2.47661477 0.35371976 13.61847761579909 13.371116531309989 -12.522233491106288 
C -1.1960544 -1.48106749 0.22089728 -10.817849343438095 -12.852062500277647 -33.02649169880705 
C -2.35475076 -0.78512818 -0.12603217 -19.574916023667654 14.19652624389725 8.000174893532956 
C -2.4554155 0.65989108 -0.16863674 20.335421007093096 -5.691335068880999 17.270218271931295 
C -1.28957454 1.40217357 0.02339263 -6.71732166820786 15.319432369000662 -5.989182484426929 
C -0.00565316 0.72544088 0.13868883 -2.839685660171183 22.806474035986696 -15.91242234228534 
C 1.21105565 1.47027387 -0.04298105 -10.664903330675235 -43.92546543168166 4.443693613712132 
C 2.39936858 0.74970652 -0.19584246 8.455531361228866 22.978804665397494 3.833885140524246 
C 2.41705799 -0.63244422 -0.13442622 -9.41158416433549 -57.920009590899156 18.616195123206296 
C 1.23621656 -1.37850918 0.12215679 72.15204406021428 -24.40856214525328 6.44678252554291 
C 0.06520192 -0.71823779 0.22300689 -94.24807491989769 13.994508584586095 2.761218695699981 
18
Properties=species:S:1:pos:R:3:forces:R:3 energy=-241633.25111238597
H -1.25976011 -2.55234108 0.04863487 11.081433645665033 12.833420207604847 16.259953288039583 
H -3.31737669 -1.3374903 -0.11102759 -40.917910200876804 -26.324518112404675 -0.11295656961008319 
H -3.33936122 1.19354229 -0.54345024 11.467552394095033 -16.790365113055778 0.8792056701850087 
H -1.16131303 2.38637301 -0.6150755 -2.852984643208231 8.601635186553137 3.7254987252275633 
H 1.12012085 2.53353045 -0.2265357 -8.296700118611984 31.065022734068055 0.7035606709491062 
H 3.32511436 1.26053739 -0.28454037 16.420018970365927 21.399509222466627 8.902247936779618 
H 3.42749373 -1.0667288 -0.00700554 -19.477992940427963 -2.014763320034053 -0.7010633318250739 
H 1.29359996 -2.48610003 0.12681081 5.200577099661413 41.7429440081923 20.508133470880885 
C -1.18597373 -1.43387597 0.16660088 -68.8475260363642 -50.91940357541803 -16.216802445976708 
C -2.43077788 -0.79077621 -0.01738512 67.36877398832816 42.8718159989809 -14.321798750896793 
C -2.40131602 0.59620418 -0.34656016 -8.816679090060633 31.77295789885788 12.135336844069753 
C -1.19221637 1.33955594 -0.31150144 -70.1325848888359 -27.739816876239892 -17.42594266340622 
C -0.02474101 0.66232513 -0.05401881 32.90522133783961 22.089775653662873 35.38040932472253 
C 1.12316833 1.50788273 0.06181806 77.78743446376119 -81.15477728665742 -16.34993338905173 
C 2.40949468 0.8257226 0.0832384 -67.43357673687996 -1.9748556985334893 -20.301417588583305 
C 2.40294549 -0.60629465 0.06798134 58.04625565697791 31.401721204562076 22.08490430080365 
C 1.27478052 -1.31665429 0.30220694 12.076134728320788 -109.6250350253296 -33.61521627378729 
C 0.01721596 -0.77832606 0.18296547 -5.577445258107282 72.76473170690318 -1.534119218520484 
18
Properties=species:S:1:pos:R:3:forces:R:3 energy=-241644.66472874035
H -0.96109233 -2.69843751 0.19945544 -10.990273652711569 16.598029682589694 -6.886384174814368 
H -3.20455037 -1.47047911 -0.06903191 -22.034229424200415 -13.866891709377525 10.548303918810154 
H -3.50944266 0.89693573 -0.36081213 36.838135579782225 -14.69716565989773 14.370354565289839 
H -1.44774196 2.37293558 -0.51891563 -0.03708536740977724 -5.921922714666663 3.727209864997734 
H 0.87312149 2.51379053 -0.50919499 9.500853958540754 19.907017065964205 -5.423120135467287 
H 3.270373 1.41346292 -0.35332164 -2.685153018848041 13.605699208201477 11.99767962206005 
H 3.47469603 -0.8647638 0.37062819 12.452138423223722 -4.004580522711852 6.717402304039025 
H 1.46403869 -2.36066852 0.30166878 0.6783346998258667 20.611675807202417 1.94105268378056 
C -1.12282312 -1.59461174 0.05445608 29.05092347382007 8.16662385055287 22.60857117570707 
C -2.30139674 -0.90601442 0.08692999 -28.793575404476933 -18.57507559259616 -26.465074666873193 
C -2.4439604 0.4818497 -0.12521377 -49.37854652171106 22.125759393320404 -16.31429709496084 
C -1.35795079 1.29808226 -0.25642957 17.62448468122994 4.960142395905207 3.4362437689849292 
C -0.05262262 0.71568416 -0.0826548 -53.30762581838913 -35.22066618572085 -6.165409721796688 
C 1.07197725 1.48911378 -0.23909879 43.93464012911881 -8.72490721344715 14.223343586864958 
C 2.34375412 0.92195603 -0.00801672 2.2231523958283166 42.8078694132247 -25.98325897416563 
C 2.49640279 -0.39968504 0.339725 -46.115446855374856 -49.33521187738597 -21.220549853405622 
C 1.34379475 -1.23447169 0.23486838 25.230325458122405 -28.93284415728889 18.174745964744318 
C 0.02624016 -0.75535193 0.07432955 35.808944891987586 30.496447630310772 0.7131907236681316 
18
Properties=species:S:1:pos:R:3:forces:R:3 energy=-241640.51067494956
H -1.08747734 -2.53117946 -0.14386078 -0.3553336482405376 -18.904955592072522 -0.1320518459226637 
H -3.19489968 -1.49594418 -0.51203366 -13.698692480492905 5.964673935036852 10.502558500297429 
H -3.45824119 1.07340173 -0.21348697 19.146692327337835 -6.588853373487868 17.390767653702436 
H -1.55165893 2.42323087 0.34266386 20.062946604480178 -44.63191713434226 -7.836523288361851 
H 1.11343556 2.48061227 0.7229772 3.158071496243343 -16.57805927034476 -25.007950808905143 
H 3.34693171 1.42779672 -0.03491735 22.32509116796113 17.16050729452562 10.792342332726822 
H 3.3889884 -1.08007174 -0.48679345 14.295404746042703 -0.2229296134670488 0.8441207828807599 
H 1.28899513 -2.43246877 -0.28727178 7.58472248987447 25.051937654805833 -0.642878650534048 
C -1.1789061 -1.46470151 0.00332113 18.416163714148112 5.118316693662301 -17.68223772366002 
C -2.39381379 -0.84975993 -0.13055737 -1.4013262344437267 4.90784768775239 -1.1095075330984534 
C -2.46698 0.57949661 0.03548612 -108.47760019187832 -71.54137586676764 -40.52212345345429 
C -1.36643682 1.2584827 0.18889626 75.89221139178765 132.77936017875308 16.314173769571997 
C -0.03628973 0.73423431 0.06096909 4.904273623118091 -20.664612044541414 35.10911007076674 
C 1.19828695 1.44825091 0.23939237 -21.058685280551664 33.86989861741779 22.77728386510484 
C 2.44643695 0.86367647 0.07864806 -26.772823688157803 -45.74434415885732 -24.97528736817795 
C 2.48026225 -0.54537313 -0.22685402 -27.395625202552726 5.558881229623557 4.094482359534927 
C 1.29026946 -1.29604329 -0.19103294 33.22181539831043 -35.981250619156405 0.752222023415296 
C 0.04009676 -0.7169656 -0.00679853 -19.84730623298627 30.446872009817696 -0.6684995000657884 
18
Properties=species:S:1:pos:R:3:forces:R:3 energy=-241637.49524479843
H -1.17013097 -2.52914396 0.27283205 7.8692649932781205 -18.501908062381986 1.0696971489237064 
H -3.24036242 -1.30355277 -0.31879322 -6.478536441527402 -18.161744622789953 9.270899541193948 
H -3.51941592 1.11640676 -0.18383172 25.121841805499905 -15.291677041585134 -5.677598517877776 
H -1.35780961 2.5643186 -0.08515426 -1.1517322489239747 -19.27648044088264 -2.2606148543308966 
H 1.16217517 2.58042009 -0.07610186 3.355961312491461 -25.52891875510661 3.4024763288633966 
H 3.3177139 1.24417434 -0.06603331 -9.586490397059395 10.134474904164394 -12.083116842642868 
H 3.4249548 -1.12244933 -0.26388186 43.835861235941266 -16.921242996142357 -7.065388605075144 
H 1.06419719 -2.52435261 -0.2031666 27.626132212507226 28.24693799008081 18.990060782762303 
C -1.13351723 -1.451207 0.2275752 -3.532876326068217 28.053893438628894 -22.488875585089446 
C -2.31019478 -0.80157349 -0.05688929 -31.08872373932543 39.10909790856531 0.021632933352195637 
C -2.47695689 0.65113126 -0.13268161 -18.71436213272382 -14.259352228764469 0.21180779787146456 
C -1.35663041 1.43715163 -0.07976596 24.96715263579862 -1.0124219923753839 27.763100472488887 
C -0.0979588 0.74882563 0.14494691 54.30041654333889 17.8508128578164 -33.11413691817854 
C 1.17539005 1.4428223 -0.00579779 -54.20217482709544 31.680839762498806 3.84622360851359 
C 2.32756331 0.740656 -0.13761283 72.253476820894 0.4138681467402953 18.266568831662802 
C 2.49664801 -0.65787638 -0.12705761 -89.28665302308326 -20.39548521474291 11.93219739804856 
C 1.30959639 -1.4247439 0.06299254 2.5916901614221786 10.723554039637555 -26.669824457875595 
C 0.09281226 -0.68735296 0.18189401 -47.880249771185774 -16.86424769336102 14.584890937389414 
18
Properties=species:S:1:pos:R:3:forces:R:3 energy=-241637.69130605916
H -0.96225012 -2.68796807 -0.04047695 -15.88915179006786 27.118626892647228 15.005238410328054 
H -3.21244816 -1.46150985 0.29355398 -0.9606182141358388 12.720922550739777 5.943477383829786 
H -3.53054093 0.88987917 0.00129414 11.8088554077128 10.525129418097444 -1.7698972030268922 
H -1.40129938 2.46848608 -0.31690618 -1.0343063197894478 -12.39997652702812 -0.034279714813642025 
H 1.20951835 2.66272258 -0.13814021 -14.55286546838526 -16.002572015707145 -5.159844146712451 
H 3.21326705 1.48666169 -0.29851512 35.697966271883146 11.411722753402454 0.2384721699241681 
H 3.46239746 -1.12253574 0.38426094 -10.268314968225253 15.775494400219268 -13.337062122495192 
H 1.29133752 -2.45080398 0.265174 4.135507024461342 2.4074467737777483 9.43641881451337 
C -1.12763597 -1.56715029 0.10033542 8.112205336905683 42.24746224483605 -22.977140958469185 
C -2.3041829 -0.81614254 0.23545945 -24.713869561003055 -61.54116080731458 -20.61067023095494 
C -2.46559325 0.57318338 -0.00136464 -10.040759466855615 -14.091418623794276 9.687888768928762 
C -1.3433259 1.35998991 -0.18630762 -25.199319795218283 20.782711520030386 7.995072305569656 
C -0.08922104 0.74953884 -0.09028398 39.43053367636919 -1.9606602347852498 -18.67289278490495 
C 1.11935028 1.54419194 -0.14718568 45.25434392928647 -51.381105371534034 -0.6975023112222868 
C 2.38636726 0.8352453 -0.15920217 -57.70702071526533 -12.003525719819539 18.72950743913034 
C 2.50742006 -0.59260579 0.10446348 -36.72053059166967 0.13360527149364304 12.162027304185479 
C 1.28832502 -1.34748734 0.22295817 29.36497631978814 37.63401479084727 -47.2302324779515 
C 0.02263194 -0.72071485 -0.09143063 23.282368924208836 -11.376719687750416 51.29142053996247 
18
Properties=species:S:1:pos:R:3:forces:R:3 energy=-241632.69261302412
H -0.91363281 -2.52442873 0.39201574 -11.279807276900142 -29.453395880303027 0.351084851430752 
H -3.37572111 -1.46775451 -0.20304067 36.533927420142604 17.704620095913633 2.433566853970086 
H -3.32924722 1.03202793 -0.2779771 -63.7900858377686 28.051723386113707 -11.056090278258184 
H -1.16957351 2.36912885 -0.19037903 -21.88817658918115 37.16819819569975 1.0221089645046435 
H 1.1856559 2.58983782 -0.16372917 -6.517140845697809 12.775262800197893 -3.368529829763835 
H 3.22557287 1.43267027 -0.59118676 -13.51386685471462 -17.521022980739577 14.51572673902839 
H 3.45922585 -0.98874652 -0.28032734 -2.0913804036726384 -10.093847489288574 5.750332037588912 
H 1.44466101 -2.47878463 0.28554817 -16.23256912261163 35.11617163509894 -5.24924675287493 
C -1.18789773 -1.5031643 0.24081786 31.426998165990316 63.91919566167478 -2.792918063916332 
C -2.37182182 -0.88503028 -0.08878132 -53.49634686630533 -15.934607868245228 10.590130198764033 
C -2.43594961 0.54224102 -0.14411468 68.01784262472518 -15.310350165605144 13.692931761848769 
C -1.28345895 1.3290175 0.00393732 -15.950316439648866 -25.800408926250892 -24.516340234353084 
C -0.02076752 0.72620653 0.02146213 3.2630427469259646 48.412889753948434 35.34976177977446 
C 1.19930507 1.50981398 -0.07466394 -65.78466766941143 -10.338923496620975 -5.3933916018303005 
C 2.32028226 0.82442339 -0.25192186 94.07776730119231 0.9495390880979304 -9.525028106395705 
C 2.46261051 -0.58285706 -0.05580121 -30.526005405717054 -2.430326005049867 -20.14532084929976 
C 1.29332784 -1.33808393 0.14178762 13.780234278937808 2.5928415936583784 29.444108529866455 
C -0.01984263 -0.61954155 0.29368868 53.97054958789404 -119.80756176994225 -31.10288600008437 
18
Properties=species:S:1:pos:R:3:forces:R:3 energy=-241633.67462744066
H -0.95498159 -2.58342846 -0.41691621 -3.551358532899732 42.48362324954049 16.911852479274735 
H -3.16807329 -1.4783086 -0.33238964 -52.799063931976654 -39.142309198616005 -16.360120777662637 
H -3.38990459 1.00568993 -0.12342189 -92.60035048765465 43.05267861082162 -5.201299264678761 
H -1.43838922 2.3631661 0.60778826 -3.642517340032149 -27.228543017093955 -4.491654145939811 
H 1.26772341 2.6183751 -0.02213861 -19.73548567993878 -5.3831283206724185 14.032823648421143 
H 3.33598599 1.30594239 0.07935848 28.471692582138502 31.72982958739489 -6.735399510062501 
H 3.44047744 -1.084163 -0.40926454 -15.60440058216002 6.858721341440469 16.92405576366477 
H 1.25394386 -2.41252048 -0.109584 4.926863514054851 27.009940464625767 -11.228404306174331 
C -1.08068892 -1.4459912 -0.1461638 -11.588553573684905 -51.04352820764451 -24.546080626200535 
C -2.3292275 -0.88536012 -0.24230485 24.76185499547271 58.215274288205705 28.64852340242095 
C -2.52811586 0.52643032 0.0543359 116.48142741423463 -68.94132448114625 10.93274591628033 
C -1.38461333 1.2370631 0.40215229 -0.6739993380796832 56.27591258523752 -21.7806724247431 
C -0.06223887 0.74110776 0.17988537 3.2180586255251233 19.9137193265193 8.52792217865755 
C 1.13930299 1.51874962 0.10275736 46.332193597905196 -10.150072008389655 -5.435693396023847 
C 2.3897734 0.84493524 -0.02358686 -46.80431520355722 -36.236070518028306 6.673327707380887 
C 2.46420322 -0.59437097 -0.12081653 29.164601022626453 33.031460288992086 -17.76210158532406 
C 1.28394209 -1.26767808 -0.13734755 39.333838270770435 -80.95850374449574 7.096468974705196 
C 0.07856916 -0.65262611 -0.00788727 -45.69048060945992 0.5123221249510828 3.7937083376461156 
18
Properties=species:S:1:pos:R:3:forces:R:3 energy=-241643.58961453894
H -1.19991586 -2.56701964 0.25551093 10.465857338906734 -33.22603692123615 7.016895639197563 
H -3.3388544 -1.45552554 0.08861078 -16.07011401087649 -16.27019522441863 -9.900281176576176 
H -3.44748774 1.08808065 -0.31433964 -1.8366091234636528 -9.023673640304155 1.0310453119114378 
H -1.25276147 2.37991012 -0.2219905 -15.877899534157159 -4.5899432950251295 -9.881248748779061 
H 1.09309922 2.5405148 -0.63085439 -9.51214771818809 -23.771243809606503 13.443177690487731 
H 3.37578388 1.44431929 -0.32341367 -19.223209802008515 1.0940325684409875 -2.9552130898101847 
H 3.54226859 -0.69801774 0.41437128 36.169454649096316 -37.9460873156676 5.587506949687252 
H 1.59452396 -2.31437628 0.39331039 -12.16657967118318 -28.43839709879349 10.959712672699906 
C -1.19899209 -1.51115033 0.13953713 28.19946008701908 40.45201889900335 5.386211455393446 
C -2.4201508 -0.92207029 -0.09012127 0.14366933471570545 53.904980798946156 16.200793861848297 
C -2.50623418 0.52215454 -0.20069563 29.211825159984226 2.954814653938544 -6.7197300707534 
C -1.31008945 1.26992989 -0.21735728 -33.2600367822828 15.833409900132727 15.8126473594287 
C -0.04907657 0.70733608 0.00364393 10.095597761153282 -17.4547284693112 -13.204715007131936 
C 1.13500594 1.46371139 -0.25008572 23.666605774637965 32.37448341203562 -14.027800510467962 
C 2.40244541 0.90506816 -0.18247076 1.1054792990033262 -31.222567360849432 27.09177160340603 
C 2.52543219 -0.50039685 0.23191579 -52.45493629262601 74.43456221509598 -22.506974771722923 
C 1.37004795 -1.26586949 0.34149373 0.19612887199399207 14.689748349251566 1.361218209186296 
C 0.02085015 -0.70378213 0.25262214 21.14745702991738 -33.795180033274725 -24.695016192183967 
18
Properties=species:S:1:pos:R:3:forces:R:3 energy=-241640.46290107074
H -1.08143042 -2.44958969 0.76332829 1.0742886480159444 -11.3622242112774 -3.217348318718241 
H -3.21352742 -1.5959389 -0.14457965 0.4295470726177678 7.786594293196901 11.241315525729158 
H -3.46138391 0.69730032 -0.95849923 14.565265599069026 7.161211246383639 23.59499048417372 
H -1.4802448 2.38413981 -0.63044897 -2.5572586615145783 18.317390750075802 -0.7199427887071824 
H 1.1870187 2.47968587 -0.29547108 1.1776199081911884 16.96902921267619 4.242787068721594 
H 3.32428151 1.48295927 -0.27839081 -10.352266355036745 -15.615165465620596 5.022368355322871 
H 3.45460778 -1.09111318 0.01586475 19.878075917502127 -14.699311995991984 2.0639310180871195 
H 1.35755415 -2.39463567 0.27982524 -1.50056522618733 26.873552071135872 2.3304442982990348 
C -1.15698907 -1.42702726 0.39455713 25.46709478902373 20.479503007533005 -2.010784890422881 
C -2.38162246 -0.88077095 0.04450279 -9.83320639489917 -21.511570497186565 -10.81176252400616 
C -2.534335 0.45302452 -0.35305302 32.18996847137153 42.25838958578 -20.54790709460319 
C -1.39414628 1.3690853 -0.27232921 -10.386572157913411 -65.63144298870263 -16.84833397491633 
C -0.07603255 0.78043593 -0.10945441 1.6969549788115625 -28.11486479937931 50.09022532354484 
C 1.21412922 1.42331469 -0.03379898 -44.5686239359827 39.4109593283538 -45.41369218987965 
C 2.42764062 0.82178188 -0.11642667 32.15791217102017 -12.155328601093522 21.490248248948568 
C 2.50816578 -0.59843687 0.11165362 12.97170947223236 52.37263556871132 -27.354821100340974 
C 1.3366622 -1.25157339 0.2053327 -27.7791932499116 -72.47865119360216 23.12254514937599 
C 0.04924532 -0.6489486 0.23382994 -34.63075104640987 9.939294689007642 -16.27426377642934 
18
Properties=species:S:1:pos:R:3:forces:R:3 energy=-241645.1908413066
H -1.11662024 -2.5957002 0.00609254 2.577068987918228 40.84776295686818 8.653953611126884 
H -3.323384 -1.43255139 -0.03028138 -22.959165097224545 -12.68302726755521 -3.960305522296848 
H -3.30709179 1.23147106 -0.10343311 -63.42791948865785 28.772230625639047 -4.351851773656904 
H -1.38906768 2.39691041 0.01603362 9.362414094640332 24.024672740390795 1.1820525072631891 
H 1.09066914 2.5866261 -0.18805406 5.714383872562776 -3.3691891462657155 4.659790526308965 
H 3.3291952 1.23426762 -0.1981923 22.821228021447862 24.84129196155999 -2.2393910292397607 
H 3.44680694 -1.12794171 -0.14630159 2.1698770136700047 -8.05859792485434 7.037064083557272 
H 1.34701589 -2.4065654 0.0968747 -11.26804867540256 -44.332357393205115 -1.2917789003424724 
C -1.16235915 -1.43249979 0.07954964 -29.898161780232208 -22.47102897833888 -20.317378739869856 
C -2.44259822 -0.82694213 -0.05013052 53.65387844905519 37.70727007181889 9.411754922566193 
C -2.4741815 0.62830689 -0.09232829 90.11518618830713 -55.92146830278189 18.706769320562767 
C -1.24474857 1.33079441 0.03286591 -82.1490431729891 -4.341830399992516 -14.047775665997081 
C -0.00211671 0.74515126 0.0526397 0.4500914222492314 -10.078265800736919 -1.2666762546080739 
C 1.16502282 1.49367308 -0.03948631 51.38725859694457 -6.391222066227897 -2.8219943959777165 
C 2.37448322 0.77995538 -0.06164351 -11.749041408303817 -28.65203580436083 1.6232645015158607 
C 2.46090669 -0.68323015 0.01330804 -17.080594814198673 63.32839945732621 -13.94257792349457 
C 1.26141056 -1.35772445 0.04687155 44.77993961811985 13.323337429702432 5.674306678652554 