20
Properties=species:S:1:pos:R:3:forces:R:3 energy=-322829.4537929233
H 0.79761736 -0.29299341 1.06612708 2.6391443480629815 4.821327812554073 13.96410294713153 
H 0.57437346 -1.28532499 -0.33515212 12.66911995832128 27.83344574861227 4.135793993154606 
H 0.04058826 0.38517647 -0.33626527 -1.2993894998192248 26.33535177348595 -14.29033654688975 
H 2.59917626 -1.86991321 -0.21194709 10.453911377683797 11.035548300268815 0.6138450080303394 
H 4.64041333 -3.1702067 0.13561628 1.4339291982975486 19.83529623742682 -2.9733229488330823 
H 6.97654665 -3.45399358 0.06028 -13.522742725248039 45.17244282706446 5.581162807088213 
H 9.17026686 -0.64133866 -0.35512376 -17.208321970764572 -27.566396477287316 16.48362285383968 
H 7.28999692 0.87892331 0.10347185 29.09777763501132 36.444523628159075 -3.869998134675853 
H 4.87609975 1.09881749 -0.46722557 10.054089281239875 -13.641062763451664 7.518451694867027 
C 0.89138898 -0.20164658 -0.02343195 -26.830541155956492 -78.77642463225673 3.3796955207381414 
C 2.31112998 0.12111992 -0.36948347 -41.829302611728295 85.30100176173747 -17.53830157920884 
C 4.52275941 -0.97274711 -0.04905215 -27.631571573647747 -36.715139849192056 -37.28540000465647 
C 5.21069822 -2.19342796 0.07289111 -72.24284000610645 -49.70903721902639 10.716256496917092 
C 6.54910059 -2.35840294 0.100383 37.866433344328804 -85.56548847378082 -2.6134013589634466 
C 7.38673017 -1.28113199 0.04509022 14.802961056207705 44.736403384216835 -1.5456774162611984 
C 6.76082592 -0.02296525 -0.00338236 -47.187567822517714 -21.54747122937084 -14.651254226438489 
C 5.34150846 0.10290895 -0.22482129 33.85076302318962 58.35081837711045 13.139449788371966 
N 3.10019283 -0.97377839 -0.34547844 49.026042242487584 -13.816002199164869 20.449668935822878 
O 2.5639399 1.34419831 -0.59272911 20.8120001140591 -59.01214128820253 10.294014081946067 
O 8.72733993 -1.47170181 0.01605293 25.046105786898906 26.483005466918062 -11.50837309780144 
20
Properties=species:S:1:pos:R:3:forces:R:3 energy=-322830.9706213974
H 1.02710836 -0.19166219 1.68441303 -7.405403817036359 -8.866815603908732 -50.4232003159527 
H 0.48063032 -1.4182861 0.3019971 16.346904802098848 21.206388778467733 9.761925505970055 
H -0.07621689 0.26647458 0.20493558 31.728221614055766 -6.627979538918756 5.457352417439067 
H 2.91079001 -1.43099953 0.95007269 -9.236626941306586 -3.4058322024251306 10.772038704767807 
H 4.88516806 0.83695507 -1.23705555 -6.860530904357503 -6.845067797910503 2.615724382393636 
H 7.27224477 0.40631869 -1.73876685 -24.88212570929791 -18.339195627479747 35.310353388934494 
H 9.27578178 -0.63832489 -0.57233755 14.006173506221 39.24977660260162 -16.37078249469216 
H 7.12291055 -2.95212025 1.04174279 21.92339428844261 -26.837565959836247 19.170015055681368 
H 4.8026493 -2.5313093 1.42897679 -4.358390390907575 2.7170112870846297 1.664826343376361 
C 0.85126043 -0.34577371 0.51230039 -25.439296772050525 1.7994668366436413 12.560833151992506 
C 2.15551512 -0.015815 -0.3098245 5.210722984535687 10.645578005079624 6.58330254516897 
C 4.60963262 -0.83584607 0.09804253 -23.307344687091252 -0.10090032702981826 29.053807390605275 
C 5.33901021 -0.00569097 -0.68383628 2.420193164207105 51.11363513373755 -56.79331239590992 
C 6.6876192 -0.21206143 -0.92649323 49.19298331524182 32.99287130049529 -32.95184782138992 
C 7.38342242 -1.16441757 -0.21257751 72.9216454768878 -54.18869441343826 10.59522092851687 
C 6.6738611 -2.10671505 0.6021332 7.233695743675 65.71566592853378 -32.81776110655137 
C 5.35144927 -1.80987224 0.79466572 -42.511919311353246 -41.59266016367895 12.820404635797926 
N 3.21951478 -0.68249315 0.34344046 5.171828054208875 -4.866764917594695 -12.49223340444964 
O 2.25902436 0.75784107 -1.27308742 -2.796460111382374 -25.68065641622304 30.37522351636415 
O 8.8231531 -1.41710919 -0.3030552 -79.3576678622543 -28.088260904199977 15.108109571937236 
20
Properties=species:S:1:pos:R:3:forces:R:3 energy=-322831.0897511212
H 1.00486822 1.41262976 -0.52228567 -5.612679558863396 5.20500732709132 -13.57016608054163 
H 1.00921016 0.70167707 1.02017798 -10.210912928824952 -2.5831558073501646 35.04514451187379 
H 0.11520375 -0.12302281 -0.32302432 -58.36739734116225 -29.531381401429332 -12.67727840712154 
H 3.11347707 0.7499274 0.92801391 5.320968767233359 5.870931223844004 12.780392662045262 
H 5.05140461 0.39175052 1.98002299 13.830087381555778 -9.461985116276969 8.621317444283758 
H 7.52193968 -0.37897928 1.94020301 19.16809283976491 10.166239492538306 27.704913419555762 
H 9.07791008 -1.47434819 0.72210003 -12.307668659301598 -9.24061130002299 -18.508247461696836 
H 6.79077733 -2.29208443 -1.67603562 6.322062611151059 -15.548021906322889 -32.89924361394396 
H 4.41675434 -1.12207925 -1.89182051 23.273143236466684 -3.919353192454274 24.501818669817045 
C 0.91727844 0.44702087 -0.01261851 98.43315637903106 -3.768119505282632 -19.473777346607484 
C 2.24802764 -0.38547105 -0.45865239 -11.380011526975636 31.360081098512502 -30.4167865440457 
C 4.71247517 -0.32008656 0.11430645 -65.03692804955209 -24.739426376198278 -61.77235915093922 
C 5.52383912 -0.2171437 1.17490446 -0.5456697844221372 63.29136863768457 67.74916877856646 
C 6.85944414 -0.49742649 1.11935857 9.965979220018138 -35.53149715590545 -23.84605370197015 
C 7.27328445 -1.28690146 0.02336993 64.31622159209093 7.077270531961566 45.671068718927906 
C 6.42194067 -1.57608802 -0.98395672 -34.222213165273814 2.171045047400855 -24.973170677609854 
C 5.14726239 -1.01508802 -1.01942933 -20.563587206301705 -8.719459551559304 -35.770188702723225 
N 3.35206166 0.08027073 0.20963626 4.611432744030692 1.5223618028439492 9.945401667397368 
O 2.33733956 -1.09957881 -1.46292198 -20.61926150443719 -0.1782656637487761 20.841369343918977 
O 8.56469757 -1.81000735 -0.06543579 -6.37481267458575 16.55697062885293 21.046676470813264 
20
Properties=species:S:1:pos:R:3:forces:R:3 energy=-322823.0495953957
H 0.26552317 0.80875809 -0.06640735 16.349703339768702 1.8084138564398544 -11.277242345976457 
H 0.27004116 -0.82661112 0.30848649 7.574863573693462 -4.471722865789414 14.28198955254309 
H 0.75855153 -0.5747931 -1.22951101 1.7203891743334665 12.783602679618273 -18.376971142738615 
H 2.71933084 -1.01002523 -1.54718157 -5.039521256761205 -25.221957118996908 -41.47338198206972 
H 4.59594078 -3.13503464 -0.10278872 -23.50409374349259 -17.338605757506834 -3.9925681555103103 
H 6.99644907 -3.27743018 -0.23767598 -8.33355899420187 12.101212471813207 -5.372583999926503 
H 8.97143923 -0.80380067 0.57415717 13.105579181819383 8.431425990994615 9.705867001815491 
H 7.3995402 0.96830247 -0.06142906 1.066742082875706 12.855803765679509 -6.099195846199477 
H 5.00491511 1.25495811 -0.5215648 -21.534040620197626 4.836549011507577 1.1429038112324164 
C 0.89583122 -0.09741131 -0.25337113 -73.98207424851168 -18.194518344874474 2.8061032081329116 
C 2.2583093 -0.08006355 0.22580868 62.1816595150082 -27.40032579718125 -76.66659996802609 
C 4.55547754 -0.92766196 -0.38167978 -35.767605984483836 2.279839385137551 -27.37759479353995 
C 5.12572594 -2.2192522 -0.24628492 -13.593882501472613 45.22120853178275 -11.869104603445868 
C 6.48106241 -2.27916906 -0.32793204 79.16135874546124 -43.705307082000395 24.086385239295304 
C 7.34416649 -1.17425994 -0.23041018 -20.434847358562056 47.69675819408486 -16.516918337184688 
C 6.73007772 0.12296026 -0.21862469 -0.03254248698044756 -37.484077206079505 8.712069514797209 
C 5.32993076 0.23294254 -0.35741332 50.15691352756067 -2.7488695553212183 5.993261708827058 
N 3.18336354 -0.73510981 -0.7279672 -26.199419921098976 27.8560629134331 91.58408406344635 
O 2.67834199 0.47907144 1.18471282 14.489128772954292 25.697976518428934 61.99671767876736 
O 8.72942379 -1.21464262 -0.26178139 -17.384750797712243 -25.003470776991282 -1.2872182325974446 
20
Properties=species:S:1:pos:R:3:forces:R:3 energy=-322827.3115070491
H 1.06493217 0.83834531 -1.23993745 1.2966846420120464 22.36477585510494 -43.379611844997314 
H 0.4616305 0.92459314 0.40458789 10.842061437566535 -21.79344490323548 -11.070952173434586 
H 0.10696943 -0.61190601 -0.60956497 14.059783289914437 27.96710793951615 1.75310834864985 
H 3.06008692 0.72923432 -1.1803714 8.312307895226663 28.119385149208753 -24.580611735076047 
H 5.2877013 0.50560502 -2.35806032 17.9153274518539 -8.86687370914001 50.34278504750201 
H 7.72767484 0.15287579 -1.92391538 -10.840955066530103 -10.050919581582448 30.22147351693173 
H 8.68657251 -2.29508068 0.52546616 -2.592893769784426 19.874720043940393 -7.342933578483105 
H 6.88317108 -2.06253452 1.70013765 -10.585699971334128 -19.146188353393057 10.079781280034409 
H 4.39147533 -1.75650043 1.13630837 -29.300147483173294 -3.42073204387502 30.916910127890933 
C 0.86976226 0.22615673 -0.40638681 -9.75800755323226 -46.82328241119678 52.13656350058536 
C 2.17367829 -0.54447555 0.02361368 3.5020485363210794 19.94538074846216 -4.730814092070978 
C 4.66261196 -0.36517612 -0.40488798 22.536747180738633 -5.679044033733518 -11.125058816146531 
C 5.64623043 0.08079948 -1.29989877 -18.176880442628104 24.70244417521955 -52.35481030673959 
C 7.01768063 -0.1657556 -1.08537707 -15.684180250529755 18.663703857615243 -61.55593613755458 
C 7.32921499 -1.05021612 -0.09591086 56.3696434382199 -36.9663667102929 46.14345357685226 
C 6.40622899 -1.61890432 0.8317679 60.76609749890066 45.74839966683651 -38.160455301178565 
C 5.14722115 -1.18521134 0.65636089 -76.58825158565953 -8.16764128501081 -8.786497572783865 
N 3.30774717 -0.10471586 -0.70596627 -21.98687247488543 -33.70604186520563 45.243111832333554 
O 2.20284281 -1.40411342 0.89030721 -3.8860577091092683 -1.6649188374179917 -2.627653742121921 
O 8.65325138 -1.42421548 0.04813526 3.7992425644703602 -11.100462515999007 -1.1218507443719832 
20
Properties=species:S:1:pos:R:3:forces:R:3 energy=-322833.94831577444
H 0.72148142 -0.71829293 0.55019515 -20.617181574321542 0.4551359049812514 1.4188479262275366 
H 0.56211676 -0.67727721 -1.21806986 -17.13111909152899 2.7067337760741887 -13.21309164700476 
H 0.36229022 0.9490351 -0.14855973 -4.4597603030718265 -20.740899469929058 -11.732930843565402 
H 2.724685 -1.68981062 -1.07085274 0.9429494805422569 -7.173288833742742 -3.621171375373218 
H 4.90703946 1.10850707 -0.46942347 0.6569235150093757 14.708047939641913 -0.9011718192512848 
H 7.28980098 0.93026004 0.07011821 18.33403730592726 -7.757598596966681 -4.868897023836391 
H 9.148258 -0.57960903 -0.00027414 -18.19208385426591 -5.6789586546181665 1.023073037015488 
H 6.95020297 -3.42840557 0.20458662 -6.3131369361336835 2.755582488265733 7.520788948149775 
H 4.64406145 -3.26431739 -0.08496592 -30.629036653167525 5.8206856144596255 -1.4635936975980213 
C 0.80121463 -0.06841945 -0.34803281 27.96815857696339 -0.21440474596340714 25.757885383521643 
C 2.29116421 0.13290925 -0.2529115 37.423915761103885 -6.4683537962006845 -19.178835192625602 
C 4.57431335 -0.9853875 -0.37603931 -53.234568569532286 2.013702010197392 -5.570354048248919 
C 5.39007061 0.15463133 -0.32124154 24.4038319050986 -29.525140425261345 2.144729306735837 
C 6.77999946 -0.0319132 -0.09026478 -62.38563377904616 39.303984040102506 -0.21367190855663978 
C 7.28731215 -1.30682226 0.06704248 52.2710273065167 9.988577411702222 12.24527431329532 
C 6.46331886 -2.43594563 0.18580424 -3.603717275389062 16.256804933160996 -19.606975881482157 
C 5.06549588 -2.2565179 -0.03096691 49.371023672991754 -16.37708157609143 -6.468174737222656 
N 3.1707318 -0.82277155 -0.78003928 2.9833158627923524 -22.930930698106213 9.151480246880174 
O 2.78746769 1.09080034 0.29106283 -0.4765731778607664 42.94665909433385 24.510617461982438 
O 8.66149645 -1.41892789 0.16439872 2.6876290131932357 -20.089254044397872 3.0661715509568324 
20
Properties=species:S:1:pos:R:3:forces:R:3 energy=-322825.75596569886
H 0.51889783 -1.16357788 -0.34175577 -23.25629034775313 -43.90045527998889 -6.491799849933054 
H 0.90872841 0.20934789 -1.54613543 -13.729631737418417 -22.98962172498412 29.308490920056816 
H 0.03125846 0.49752471 -0.03400023 2.7335416324735244 9.313892669057633 22.18075065853307 
H 3.05601234 -0.1449753 -1.83493971 -1.120791806177415 0.9746239465166304 -9.708212555845567 
H 5.2345412 -0.05674326 -2.51694119 1.9359382376067937 5.874750753434939 0.7092360104778904 
H 7.59333172 -0.50545796 -2.23135668 -15.737096328910964 3.612165064524678 53.90526539599733 
H 8.85072965 -2.28562313 0.47334173 -5.70182247021668 20.127621284358973 -3.369136970139668 
H 6.75615433 -1.87802365 1.74635527 10.07412847110551 -22.395300074664156 58.456351706969144 
H 4.36595474 -1.34128842 1.48643075 -24.485293067712334 -6.305931887454851 10.468864581080782 
C 0.80582826 -0.15411357 -0.43494868 34.77188865319119 52.47797086645522 -71.9102219458336 
C 2.21907251 -0.1990488 0.07995406 39.39372223362117 -21.92743556656925 61.70910034139001 
C 4.61617325 -0.64746165 -0.53799763 -54.308754051117184 25.36957523779762 -40.28276073192416 
C 5.56256691 -0.32971148 -1.50177633 31.78037639532509 -4.730570998756436 -9.850975923281709 
C 6.93744257 -0.54121116 -1.23924801 -8.274129200811966 4.542011222502567 -97.42024701420554 
C 7.3289788 -1.11994948 -0.05621137 71.54954498795732 0.554017964589843 7.69328559250709 
C 6.39747038 -1.33990202 0.93607069 -41.84704249458466 6.328757756779876 -52.028442709203105 
C 5.00432377 -1.15470436 0.65344259 67.1294539563557 -17.218135825745815 59.94095815351201 
N 3.24022381 -0.43072033 -0.88172691 -14.014486111757309 8.643246832897592 33.454047777887666 
O 2.48627772 -0.33166331 1.3060611 -20.598999380214806 15.420862758038286 -47.68932072448091 
O 8.73711411 -1.36829005 0.10544937 -36.29425519931933 -13.772046184611387 0.9247696580776122 
20
Properties=species:S:1:pos:R:3:forces:R:3 energy=-322824.252959295
H 0.67633667 0.61266691 -0.99264554 -8.98730569462754 4.059061884874506 -35.22545808856995 
H 0.1803267 0.0709672 0.49363844 -13.342337840331288 1.5760617089369264 31.94144646807786 
H 0.62284051 -1.2531247 -0.58248556 -20.082953777177558 -13.348767362045677 -24.835748248167373 
H 2.86442365 -1.01038754 -1.63380726 0.013532589783218583 -15.267723456444841 -16.391786942889684 
H 4.61891661 -2.57965782 -1.68494212 2.4021983298257217 2.9587219342869235 -2.7780478679926057 
H 7.18061062 -2.8479203 -1.57435967 -9.311019424661845 -1.9796784327298045 0.033837403563279196 
H 9.08743021 -0.49750685 0.56176231 -23.51685910705869 -40.98768628289784 -12.115468412434822 
H 7.25254256 0.61596528 1.06449838 -1.543655591376832 -6.329241571766868 -3.7344160994976128 
H 4.64386707 0.8786259 0.91637551 26.443146464080403 -18.964225299621138 -24.893077952483836 
C 0.80168707 -0.22138788 -0.32286905 31.43188849198628 -5.953993244870583 11.960585953902946 
C 2.23697734 -0.18119937 0.09100758 73.19117785748422 66.99507908700285 65.40063596602336 
C 4.57613245 -0.83443434 -0.48458293 -2.6755739564340173 57.508552218346495 25.56482304475403 
C 5.24162788 -1.86520278 -1.1107401 -17.467165360447407 -37.41715302367542 -36.49794723794821 
C 6.58401438 -2.06467327 -1.07900919 83.65802298532273 37.22826951827584 69.10920235252725 
C 7.33976626 -1.16110947 -0.10355949 26.783084597673593 -63.801687910888035 -53.72027256945148 
C 6.69913211 -0.09220299 0.40379564 -61.639629015377935 62.25891694201192 43.0264850097244 
C 5.26954468 0.13291776 0.29936591 15.141102670915373 -16.792695251412248 4.865051406182432 
N 3.21537473 -0.68462806 -0.74959024 -45.40017620159108 -9.392583753706633 4.162121592030091 
O 2.6676715 0.47541598 1.10177233 -44.70055838562175 -34.059943041621935 -32.32624539768305 
O 8.68165442 -1.39311584 0.26248872 -10.396920818186645 31.710715337945565 -13.545721565488067 
20
Properties=species:S:1:pos:R:3:forces:R:3 energy=-322824.7966055064
H 0.28185246 -0.72277022 0.0184095 16.637868526469557 32.69989523780858 -18.84363559993442 
H 0.39350807 0.97406306 -0.87193308 18.60384123954335 -21.63142143036129 3.56105973488155 
H 0.91466565 0.66362534 0.81673848 -2.140412918126398 14.074058203672797 15.105556499224017 
H 3.10894523 0.07408946 1.42066259 -28.588762764959057 31.56281973701996 59.05202400746111 
H 5.24261311 0.87778302 1.60947369 -0.8624618770077351 29.289721744532038 25.312730534289198 
H 7.82729297 0.41409338 1.31430343 -18.436799372000163 -6.542941940028624 -17.15703639632237 
H 9.11040532 -1.05575969 0.44246726 -15.707884813250267 -21.96228684712733 -20.150238449179803 
H 6.58470652 -2.71606698 -1.46940728 6.9090523299402 0.33820564904418204 4.615801308766178 
H 4.19157346 -1.82923203 -1.35964593 -17.383777238633026 -19.457994068477916 -12.94917768652688 
C 0.9301162 0.24197248 -0.18919696 -50.38320731533678 -25.827418372228145 39.839335995598624 
C 2.29858088 -0.2107589 -0.50516321 33.857120209820174 10.918263483838828 -44.21847588317872 
C 4.58994008 -0.70223848 0.39586316 21.487307412753125 40.256070271808426 -18.210809154411965 
C 5.63855061 0.10664083 0.99664551 -14.897916862331172 -31.694917829963437 -17.991166636885954 
C 7.00336831 -0.09937056 0.72431294 -33.41357689138999 20.008679875926955 38.44892998717257 
C 7.24993299 -1.189399 -0.08334259 86.65546790588472 -36.42438601514658 12.1719858293344 
C 6.31828492 -1.95024537 -0.72525609 -73.55475651946142 7.7533735165778275 -38.28002638058631 
C 4.92761351 -1.55445388 -0.63829958 67.32058459263848 -22.134239199624275 13.22337627294148 
N 3.24408208 -0.32876351 0.55560758 -7.711457114224409 -24.0382100734582 -67.73609154406512 
O 2.5738701 -0.41133039 -1.70616231 5.475662680218831 -6.967529909029723 33.582829129363944 
O 8.56127014 -1.68511767 -0.1226544 6.134107603630929 29.780256779394872 10.623028432058446 
20
Properties=species:S:1:pos:R:3:forces:R:3 energy=-322831.5155506272
H 0.75749271 -0.98673599 -1.15761624 -16.210983622101292 13.2844496143019 13.440996965583127 
H 0.41874893 0.75986877 -0.60341705 -9.19935895745564 -2.1452569971015514 -1.4424350926644454 
H 0.15905872 -0.6302228 0.58315176 3.8534156131609105 2.9448905175999744 -6.219215165962806 
H 2.72461683 -1.81926275 -0.87815168 -2.5806632115103185 8.86981217369336 3.4812492351646083 
H 4.82472696 -2.063629 -2.23741466 -11.717097760951876 -7.456823389256823 1.9948723577992384 
H 7.37508896 -2.4225936 -1.95822642 -26.368899836713872 23.391267614197627 23.8378905098857 
H 9.18128372 -0.64121775 0.59643576 -27.413093532389443 -5.280553614324872 -5.84100940137643 
H 7.1424821 0.06848613 1.55866395 38.80794916722578 43.191270259816 66.36413335366021 
H 4.65877352 0.10420521 1.4750708 1.4893983493919767 5.046419177788981 1.3299243917678647 
C 0.73288577 -0.25082564 -0.29441468 57.032600410714124 -11.288457841434719 -6.598693316532131 
C 2.32320665 -0.02414089 0.04611033 -94.70230604342042 -13.40185419865759 -13.248044908172842 
C 4.54034964 -0.99159686 -0.33288632 -10.342606656791558 -11.640429687008291 4.076223087060164 
C 5.24573221 -1.70838722 -1.28983967 82.55929456553741 -9.986844927153214 -22.713212768138746 
C 6.71776021 -1.82767402 -1.20998571 -31.50589202603827 5.526004341107982 12.233078143831564 
C 7.34724686 -1.14350778 -0.10443392 0.7666368640571471 -14.738567415916947 -37.94533669094513 
C 6.63634083 -0.43823125 0.84351164 -55.79709227649354 -38.167433858037505 -60.76509548011632 
C 5.26195084 -0.40103419 0.71244048 -29.14658840092937 14.225966623019925 27.04716813056113 
N 3.10374297 -0.9998363 -0.38713794 51.917798490633785 -49.214371969458426 -24.924210498239933 
O 2.7236036 0.95766578 0.59091548 17.301527505023333 58.40768323957666 33.72538616393798 
O 8.67372451 -1.12338608 -0.10331403 61.25596491651428 -11.567167291110392 -7.833667831281762 
20
Properties=species:S:1:pos:R:3:forces:R:3 energy=-322824.5087535052
H 1.03597423 1.01855851 0.60310843 2.1366052467459293 2.6742244920830442 4.983546945900946 
H 0.57201251 -0.68046634 0.84713908 11.69038595605731 3.6710730966540983 -3.173874933330703 
H 0.15209086 0.15045213 -0.54336215 -44.807694945535374 3.875856090645806 -61.88856131275371 
H 2.91250237 -0.14572185 1.52000225 -9.858427622738224 14.716186229484379 36.27559630515187 
H 5.13360749 0.50378631 1.90234099 -10.2880411013346 52.40638166405401 63.245791605760466 
H 7.67866952 0.36384733 1.48360351 1.1535394401989154 -15.25078637443698 -1.3854077727148515 
H 8.86487619 -1.83469549 -0.97005281 6.655085036400775 -2.4565207919681376 -7.559938830001595 
H 6.60818402 -2.41130694 -1.80096601 1.0525205310644423 13.996497206481157 13.947076928545176 
H 4.20794676 -1.82272102 -1.29311479 -18.45317911811614 -22.07970447551453 -23.282847995911638 
C 0.96240479 0.04619225 0.08066578 20.32491107515753 1.2118106864263394 65.59250655463919 
C 2.30686184 -0.35781547 -0.45189709 -21.458820433751878 -15.750949090376746 26.210163459780713 
C 4.55403527 -0.63719754 0.35959017 58.93588350834105 4.946259988913256 41.3800068754013 
C 5.57154712 -0.06430677 1.17358032 25.70934142733906 -56.64759514824683 -51.47186337115271 
C 6.97120818 -0.33173235 0.98063635 -45.32131910199556 41.149646907256574 16.327698058607893 
C 7.33378756 -1.11572694 -0.09739629 27.224383156862665 3.2052470149382066 -63.545728437990405 
C 6.36330569 -1.75258726 -0.92252245 -46.40244163670277 7.530881471076955 21.980597109907094 
C 4.96411606 -1.48684835 -0.63510789 68.19972029938175 -26.546867859379965 -32.234761675583876 
N 3.22938126 -0.38492577 0.62024642 -13.051621952559305 -5.550042119542578 -77.7355026168486 
O 2.4977998 -0.75026061 -1.59296373 6.381090411206181 9.527174442489958 -1.074860213760381 
O 8.62785201 -0.94325676 -0.66592816 -19.821921361842794 -14.628772245216965 33.410364502174886 
20
Properties=species:S:1:pos:R:3:forces:R:3 energy=-322829.03996252356
H 0.36500291 0.43883251 -0.81289769 -11.94388485028335 -14.848391046322046 -1.2358650663555883 
H 0.41811141 0.22949351 0.89975481 11.085515241707254 -17.60645427221716 -18.37798383391237 
H 0.37362616 -1.2990412 -0.1234179 11.0126334943653 2.0783458587289707 -6.380204602884409 
H 2.73740124 -1.92268088 -0.51095205 -11.180078541064315 4.312845376151715 -2.320862864242918 
H 4.85492693 -2.89837622 -1.48087078 -28.102953226966722 -12.817453127213064 -16.266866624740967 
H 7.22808519 -2.81046666 -1.51084654 -3.0630409833939427 -7.839608794724972 20.890908203959615 
H 9.15544132 -0.69842851 0.64055941 -14.642799322376593 -16.13912879578565 -14.92268629235149 
H 7.10226068 0.74973443 1.03863454 38.90674940518217 43.12129614568019 31.134469157838154 
H 4.86084377 0.87381367 0.88284441 3.860522238692879 -41.8986268959306 -25.507838414362112 
C 0.79723089 -0.2732341 -0.06398296 -36.48422966008173 39.85974871909393 12.274107552042164 
C 2.23659777 0.1195806 -0.1824426 27.17598149920567 -41.09811112457354 25.717694350790953 
C 4.58349629 -1.03732876 -0.31576994 -49.20953974869374 25.30032803196334 10.635333697058487 
C 5.24803456 -2.09214676 -0.90113215 58.91455651681886 -13.040769318341288 6.275860651535412 
C 6.65997218 -2.23180867 -0.74417425 -3.0318218727014443 50.34933552296315 -11.570131843726763 
C 7.36926874 -1.19236583 -0.04846633 32.977820859772486 -16.342060723123694 17.84335522925465 
C 6.70791026 -0.07769066 0.56650085 -13.084805968725936 -88.97047281415767 -58.237436097744656 
C 5.34788076 -0.07177569 0.38370071 -55.59807000114597 61.966653557774194 28.69965126266396 
N 3.11165731 -0.97854833 -0.41887025 36.072967948001754 24.609433115612426 8.625910129197043 
O 2.55122599 1.27538609 0.07552565 14.878818028555452 -5.069113420977837 -12.364112555296288 
O 8.73961755 -1.42468473 0.09324253 -8.544339871047024 24.072202819578578 5.086696775456068 
20
Properties=species:S:1:pos:R:3:forces:R:3 energy=-322833.27971184946
H 0.2320643 0.81802231 0.05035755 20.511261666801683 -15.903810909845301 -8.657435181719553 
H 0.49628626 -0.96764036 0.10082829 -4.388137897681307 12.446613682967849 -13.38107505645891 
H 0.62333261 -0.06890369 -1.46242722 1.3387575727436092 -4.389278657528086 -28.91218241137382 
H 2.81092502 -0.95811829 -1.67790503 9.64335170206247 2.757202319815319 7.159864153674759 
H 5.13482212 -1.2255552 -2.61261707 -14.071984202662382 3.5523344636210417 2.4759741862367757 
H 7.41844391 -1.26707096 -2.33762616 2.9657253933878422 -10.65289214929474 10.649059575672293 
H 8.91907488 -0.75015443 0.97086577 -2.4456005659504667 -4.279249880081933 -16.325629986702708 
H 6.77802074 -1.10444773 2.00990819 21.434164842552025 6.539264708963276 31.611687422348247 
H 4.47880659 -0.76644899 1.78339693 14.037357042282101 -25.652528740998893 -48.30132296660491 
C 0.85491131 -0.02044483 -0.41553967 -16.084520550771014 -2.4968837687505765 50.625069747633034 
C 2.29715053 0.0015108 0.06757281 12.258115569408401 20.216696603912602 31.73005370757269 
C 4.49604726 -1.02616472 -0.46996374 53.79294679811029 -6.615075434290207 -29.84640187737138 
C 5.42353441 -1.20177926 -1.54897876 20.563697487659034 -15.517219018817729 -3.4912931394288793 
C 6.82843156 -1.36551905 -1.40160397 -21.029109717829684 31.914847316182712 4.743901998961741 
C 7.38932052 -1.13491194 -0.12005457 -5.626087637436728 0.7671835275596063 20.185980281343838 
C 6.4903281 -1.03625129 0.99130142 -39.26710737719692 -28.421521679480055 -56.96449277890557 
C 5.05246872 -1.11530981 0.80225925 21.72718240897536 50.701497099904174 70.10685375794682 
N 3.22502867 -0.64343652 -0.78552702 -68.82553735669805 11.565369586403824 13.199951563987948 
O 2.54813606 0.47716819 1.20440638 1.38817785067959 -23.904326134018618 -49.00040597728224 
O 8.74503489 -0.95418354 0.01630514 -7.922653028435854 -2.6282229362242644 12.39184298046984 
20
Properties=species:S:1:pos:R:3:forces:R:3 energy=-322821.47511683864
H 0.93792389 1.03986778 0.92849191 14.44873615064569 -2.339195657622567 -23.99291645276421 
H 0.01728525 0.23407901 -0.32976437 16.35572019575889 -0.6078898147345695 -8.329248534697664 
H 1.24232842 1.44574682 -0.85114661 -0.0005336194709471049 31.741180266452456 -17.55669366364082 
H 3.38515357 0.97740335 0.43215809 -12.753364242931271 72.11960118220173 25.380343678721335 
H 5.17590828 0.69565445 1.72275358 -2.935013814103267 10.500977800842378 9.841894905707237 
H 7.53034718 0.45839561 1.42654964 8.735251130436199 -18.261927528086606 9.289961614517226 
H 9.02482436 -1.27482775 0.93645951 -10.409562856363905 -23.34108841079186 -33.768232249991904 
H 6.80520643 -2.4555903 -1.70270972 13.453944945590397 -27.811734551071005 -28.85819197912444 
H 4.49768855 -1.61683408 -1.72789485 -5.1700066330813765 -2.5142252157353107 -13.647939339700603 
C 1.04053126 0.66612366 -0.15150707 -15.06681453981221 -44.36621021244199 37.11323776183429 
C 2.2153644 -0.40787457 -0.37839242 -122.81387900357451 1.0472863169649744 -13.472743766641342 
C 4.6801025 -0.40121715 -0.07829658 -28.267535701659366 36.46623008241616 90.9263613050516 
C 5.55894942 0.02142592 0.96340112 -48.7336424888295 18.168040146726078 -24.878559945410935 
C 6.87135639 -0.25350427 0.89209022 52.975612526850036 -6.061592274992358 -2.6849312703123362 
C 7.34654105 -1.25168428 -0.01069135 49.84666716715202 -4.383478806789414 6.840593695101872 
C 6.51480236 -1.7019893 -1.03068425 -10.307679483686499 32.43300605232491 42.412032861318224 
C 5.20789755 -1.191958 -1.02219966 -16.84276417346069 -51.84623419047455 -56.63748602382499 
N 3.29455843 0.05831377 0.1713511 125.3594608852437 -64.63191917185057 -24.630100790632728 
O 2.00824358 -1.47438929 -0.94782197 17.06442851587107 1.868526682752569 -1.2619602443059483 
O 8.66245692 -1.76730324 0.11826472 -24.939024960574475 41.82064967555162 27.914578438796113 
20
Properties=species:S:1:pos:R:3:forces:R:3 energy=-322821.7831668155
H 0.7123556 0.9613386 0.38941428 -33.351119696868246 90.03970512123112 45.0937043095736 
H 0.31693215 -0.77014627 0.38901129 3.8584482376824654 4.861112108665797 3.5646421002631756 
H 0.61926262 0.0858689 -1.13737006 -2.9672041122328894 4.289396950777254 2.2937644816871776 
H 2.63888045 -1.51916472 -1.38867323 -10.929068685214984 -4.068336191279567 -9.001055289662277 
H 4.68507318 0.46925841 -1.89965198 8.378779093990973 11.733150220459013 -6.57392507233286 
H 7.26697226 0.48459335 -1.54118416 45.26557958370252 50.06493650390614 -38.52301297123468 
H 9.04037934 -1.39567299 0.64905437 -10.493631639459007 16.836699884628636 -39.13660421356106 
H 6.89680105 -2.81029431 1.15203595 31.811954809794695 -29.23620682652232 24.017179537197652 
H 4.40658046 -2.88989188 0.85552243 21.918604757235602 29.171487085443765 -4.0964152478408025 
C 0.87997678 0.08025147 -0.05611338 28.170847410986894 -90.76840757000917 -58.47988195399581 
C 2.38132606 -0.06344488 0.11190291 3.9761018444579297 -26.221157206703268 12.063610086427135 
C 4.44276406 -1.09628636 -0.46967649 50.10884745725985 -16.94531279174521 19.401131577653793 
C 5.26834962 -0.14766228 -1.21205797 -13.009974731583453 -33.84213143179179 41.74795528793502 
C 6.65527624 -0.09237461 -0.96119095 -71.9677461248017 -50.729416070624126 14.390639220112106 
C 7.28688686 -1.05018375 -0.13982808 35.418545329579544 7.960096513801689 -9.430908304110055 
C 6.56418273 -2.02727035 0.53797693 -103.70916592710556 21.75381476385981 -15.797843569483579 
C 5.04845512 -2.030664 0.43803329 50.42199196430626 8.041781796593225 -32.82097823905067 
N 3.03296815 -1.1153569 -0.54919263 -8.729785681232652 22.098502110744423 -4.598509666265399 
O 3.00766213 0.6016265 0.92342656 -2.461923392656215 13.218124271526316 1.5379731369217684 
O 8.7020298 -0.95034585 -0.20842614 -21.710081683663077 -28.257838057140688 54.348533603944716 
20
Properties=species:S:1:pos:R:3:forces:R:3 energy=-322823.61739282834
H 1.09170643 -0.61651892 -1.59713892 -14.292499484478656 -16.20825623369423 5.386922948021375 
H 0.415073 0.82445345 -0.78756576 23.996982633132827 -33.96498842131952 13.196413073985045 
H 0.2847754 -0.69586271 0.13892094 -14.017268047932513 -23.32597749319568 4.235935394714634 
H 2.71365985 -1.48140363 -1.02079349 10.260755359053503 -19.755284148131963 2.0469180435322794 
H 4.67876997 -2.38805691 -1.90159012 -23.10463332246787 -15.176794698595454 -23.16014279147788 
H 7.18183775 -2.3872063 -1.9712471 37.235661926680024 -44.99442262827232 -61.53884727045277 
H 8.90101378 -0.42046457 0.51930753 7.9061143822996325 27.24669675149558 30.295992883138968 