20
Properties=species:S:1:pos:R:3:forces:R:3 energy=-322826.21405440144
H 0.60525872 -0.84863172 0.73934565 4.6673940108594385 13.275481249726848 -14.352857775748006 
H 0.53288166 -0.71065738 -0.99323425 -1.4600030314690704 9.015802160197163 -15.316357535026961 
H 0.38262936 0.83439719 0.16618101 5.653533465559107 -19.788828653896747 -20.65242773328812 
H 2.62152472 -2.02116554 0.05390662 -13.185977848775414 -18.468767921594075 2.8022030427108113 
H 4.53388461 0.15024896 -1.98147691 17.72510159702963 -27.20023509707074 22.39670290096223 
H 6.95648666 0.47902113 -1.74567483 -2.488869990117997 -13.570315493993496 8.60408390701426 
H 8.67189638 -0.6221436 -1.12156208 25.328401159419347 7.484020194959427 -11.826104360655904 
H 7.27170489 -2.43663813 1.44008911 -5.194631392934016 -8.432480185904996 8.701226367147566 
H 4.76481112 -2.57431802 1.37675661 -24.724379492938613 -19.94546019847228 31.179543401638536 
C 0.88626435 -0.14519568 -0.12526654 -6.202071751092846 5.993524961099393 63.04990108379683 
C 2.39278953 0.03915494 -0.00533066 20.36598791621 -45.951280603869556 -11.588306922907224 
C 4.45388622 -1.25045008 -0.23708455 65.83865928748186 13.059424655045598 -5.606519218526575 
C 5.12459926 -0.51845002 -1.24097257 -42.4192414674602 40.58772188792834 -2.481529757839858 
C 6.46515017 -0.27347463 -1.06458207 46.161537347812136 7.377748098588741 -17.68850004460685 
C 7.25377724 -0.98303961 -0.12220234 10.528233897597309 -18.578094692980674 1.5802381706628723 
C 6.60455798 -1.87833056 0.78164548 53.45097735306436 36.29536038453471 -30.10752915838987 
C 5.24680434 -1.90028579 0.72236583 -16.15341556775447 -13.644115066825481 -6.9852176157600505 
N 3.1269793 -1.16189939 -0.0605768 -80.90106375882195 -8.135358492839556 -9.802569522340526 
O 3.05450776 1.03408153 0.12789433 -8.977274834394782 57.093048824383004 1.5926667610517535 
O 8.66274817 -0.95684806 -0.21498658 -48.01289808509486 3.5328039909843776 6.501352824284054 
20
Properties=species:S:1:pos:R:3:forces:R:3 energy=-322828.68243518105
H 1.28067935 1.49416552 0.20319573 -12.639380752294876 -8.034665684492886 -11.73893465552408 
H 0.36081974 0.00197114 0.68112188 0.5513510530561541 6.148780953260928 -13.555523562258843 
H 0.27814363 0.49287292 -1.16944353 30.589329435423824 4.256152457737249 51.56935920595789 
H 3.13094675 1.02059381 0.72948839 16.15875294828499 -41.61626393161051 -26.021775627578595 
H 5.43124626 0.4644463 2.0459396 -20.527016485226135 15.36178159603607 -5.923186799902284 
H 7.51323415 -0.23720936 2.00828431 -3.9671322940618317 -4.912689395085449 -26.669686902634197 
H 8.8988153 -1.78326634 0.92983532 -7.8184134293389524 -15.390776106445246 -36.52431278309718 
H 6.99970105 -1.88032489 -2.00686172 -5.662467441323808 -6.066613041303448 6.954629361864316 
H 4.45410393 -1.10729171 -1.78501269 -18.733789438929435 -21.242620354723993 -41.38305443549093 
C 0.94096575 0.4826693 -0.15910377 -8.799345943823225 -17.869325895995125 -26.272056203484297 
C 2.19414054 -0.43063533 -0.42498628 -10.276316888647367 20.832920368962316 -0.5162329627626018 
C 4.68891653 -0.27228711 0.03625533 21.190772701105725 4.428295727422691 35.163026982111234 
C 5.64152398 0.08249138 1.03699964 -24.600177782344108 -5.106062418967262 12.310666414907274 
C 6.94810394 -0.39201988 1.02942379 0.6234157696970373 29.048111892118705 65.19853767088104 
C 7.36485689 -1.18734239 0.03341767 10.846010221651543 -65.10494911642424 -70.91008624532151 
C 6.54739194 -1.4340852 -1.10240052 -39.35433400173899 18.804088468032006 3.625888571496391 
C 5.1784451 -1.05897962 -1.02398367 37.608157962927265 22.74589399618164 7.971036898777152 
N 3.33721853 0.13756083 0.14014997 -8.932972560095706 34.363685173590255 20.930564431398317 
O 2.15366077 -1.46423572 -1.07944868 4.211303519935715 3.7698768920736176 3.2922234312394454 
O 8.44499021 -2.0145284 0.04510843 39.53225221992112 25.58437841963267 52.49891720942147 
20
Properties=species:S:1:pos:R:3:forces:R:3 energy=-322825.2332910556
H 0.90788688 -0.97537326 1.25989837 -0.22943739937051036 17.517375395200393 -11.573593255361642 
H 0.73258668 -1.2867289 -0.50609935 5.899617420781074 29.8160543451481 25.483716442633206 
H 0.12509448 0.30942984 0.12179951 14.117535146523473 -1.56428769176574 9.169183369284106 
H 2.73852808 -1.82326648 -0.05234112 1.4336564594568424 -8.817830522296832 -7.292986796002457 
H 4.7636063 -3.27626712 0.21430922 -26.909285602552583 -19.035436225108505 -0.06221765867033934 
H 7.27443049 -3.22321309 0.3029738 -23.872095517973413 18.357571110417073 -6.9275997569292755 
H 9.17818039 -0.75548749 -0.649185 -20.26857153141494 3.8972435590413657 6.28855842330186 
H 7.337062 0.97360204 -0.36485978 -1.461178180126201 1.3297619342844873 -8.307180405021386 
H 4.83102973 1.05042994 -0.94088491 -8.03726856169006 -8.069515779229915 14.261964592530017 
C 0.96232579 -0.41888246 0.2683446 -28.544734415321738 -58.573583161452035 -23.920501918914596 
C 2.32831082 0.11521539 -0.04981031 18.819836171530177 33.44062309781968 -12.421399570055078 
C 4.57074844 -1.09642613 -0.27674372 60.03682585602027 31.6037815534309 -15.080583107983692 
C 5.23271526 -2.34906464 -0.03331418 -6.143051065964004 36.67812800268717 8.361613148521128 
C 6.5952203 -2.33386615 0.07639452 28.820752051221746 -17.315016219427832 3.211153589571068 
C 7.27248242 -1.12403636 -0.1083875 44.36348638149807 -35.5076977275012 -1.8747937469835811 
C 6.70689055 0.07151453 -0.36349699 -63.31365021514923 44.99708005323763 -8.69414938714176 
C 5.27522699 0.1306172 -0.51512571 51.17938772494765 -23.31190179737314 -0.8674446970453346 
N 3.24496807 -0.99078968 -0.35673077 -114.28267328643906 19.451148323576188 23.86901356907343 
O 2.52043017 1.35108 -0.09894329 14.267330432765652 -56.62615668954627 -1.4418860575198933 
O 8.60862458 -1.27324733 -0.03747683 54.123520502898884 -8.267342746962566 7.819132036893162 
20
Properties=species:S:1:pos:R:3:forces:R:3 energy=-322828.6254948766
H 0.14333636 -0.14963228 0.89420403 23.640473836235156 -15.537299712419994 -50.716383897322544 
H 0.65938734 -1.41536252 -0.49286347 -9.680354061998989 5.434646316039744 4.335136440184746 
H 0.23654464 0.33171244 -0.90202106 2.482433353477329 -5.479559288177793 3.1375461197486247 
H 2.56241469 -1.77869778 -0.55106514 12.919242820027796 -21.385792830421195 -3.4916927611215662 
H 4.82069444 0.97770173 -1.01259546 4.423121990196599 -12.9249110446303 5.152075833036507 
H 7.25085295 0.87802162 -1.01940561 4.181535854204192 -9.55752671799743 0.6971987410343703 
H 8.98220055 -2.01375179 -0.88195378 8.284850208893818 -11.67839374781356 -0.2746646140858939 
H 7.16629237 -3.18308874 0.68497196 -1.2015758649735737 5.144577886559177 -3.742508142319264 
H 4.80751215 -2.98233756 0.87519262 -28.72879162906186 -16.873008539252925 6.6885572070817165 
C 0.70553312 -0.35540975 -0.15833314 0.18432165183350246 25.44710896110519 50.780881889865405 
C 2.19461488 0.05620464 0.05793342 37.06051734392576 -1.257484955676272 -14.707039991752346 
C 4.499268 -0.99179499 -0.16582167 5.094499477942361 -40.06772631498503 11.96095593006947 
C 5.2904734 0.04636841 -0.61028813 58.28871692890267 38.02800146192112 -18.83303080231513 
C 6.73668799 -0.02931029 -0.64629834 -43.215348356166196 11.212706407160114 10.830052627828133 
C 7.45381547 -1.17487998 -0.20554676 -29.036945015323347 8.897496351846096 -19.644427667595323 
C 6.70655568 -2.26315135 0.27275835 -77.28841725095238 21.638777078313034 14.323584597392896 
C 5.1929224 -2.11403054 0.38551921 85.16760400892697 6.968489238256382 -24.439235778264365 
N 3.10478466 -0.94229178 -0.3806421 -37.51949886656098 0.06447190447982923 17.90732908889493 
O 2.66026228 1.11205293 0.46462424 -26.776544794601875 6.27426690804885 5.6348994736336335 
O 8.79399374 -1.19029725 -0.41627071 11.720159550894067 5.651159451823915 4.4007645201849614 
20
Properties=species:S:1:pos:R:3:forces:R:3 energy=-322812.98945239926
H 0.07534517 -0.16720806 0.5377742 -33.29915346114532 38.62198515324281 53.64137515194038 
H 0.6593653 -1.71429424 -0.01125003 2.8235940685695113 -6.0141048853622525 -2.1686093709712435 
H 0.44993155 -0.33271397 -1.09384221 -26.586648598028543 0.29670665569914895 -43.30785544182853 
H 3.01144529 -1.17191099 -1.54489942 -10.134667007173935 -11.620155704575438 -19.117183170594465 
H 5.03745831 -1.14429632 -2.52155954 10.432382796583695 10.502571544328939 14.912574796287565 
H 7.42558126 -1.62508647 -2.21168369 -12.779066914115221 24.799756207762513 25.735788794140248 
H 8.96767856 -1.32419112 0.80241598 17.300266977250853 -4.1249259432629835 11.775752027377335 
H 7.07732815 -0.57961412 1.87119043 5.858703037211989 -6.079844432540842 30.996867669417647 
H 4.38897559 -0.13183213 1.53763547 49.41760628116334 -23.674911265247992 -21.148053497903796 
C 0.72579161 -0.62065193 -0.11224057 80.85414437747315 -33.162423551194024 -61.36426358105353 
C 2.20426512 -0.088687 -0.02704893 -30.890714155151617 2.7252883179895426 109.93538573799033 
C 4.68897258 -0.68025943 -0.46317748 -92.33165766835918 9.9348075421675 -8.837065725492906 
C 5.50317216 -0.92667329 -1.51214239 -18.929498530272948 -23.7999027326595 -79.451254045069 
C 6.83260544 -1.15837901 -1.33536002 12.786104762026492 -40.43576484991829 -101.09444474931732 
C 7.37291872 -1.18146404 -0.11099408 52.28762524370525 -17.447217478802358 18.815560100836322 
C 6.57301598 -0.92804973 0.98916308 -25.554898908415456 41.22903762632303 5.4309157230273 
C 5.21073018 -0.5710783 0.77906402 -16.496741592077655 21.64942693713209 85.47236594699534 
N 3.23294274 -0.67099033 -0.70789857 28.83458228208765 11.648595250734825 0.20039545611947582 
O 2.34952848 0.63206422 1.00002429 25.145956662302527 -5.901105626194494 -38.298583294143754 
O 8.71437624 -1.52344665 -0.10826876 -18.737920839455615 10.85218004855674 17.870330286421552 
20
Properties=species:S:1:pos:R:3:forces:R:3 energy=-322833.81201571226
H 0.29679593 0.73380186 0.04150288 -14.63092806787959 18.915535487449834 31.75224041935362 
H 0.39483022 -0.80191671 -0.68460367 -3.050885131845768 -8.569452003349793 -2.7343859370586676 
H 1.01001715 0.66402354 -1.50534579 13.173263475514315 -12.635226821168814 12.131065516660081 
H 3.00707335 -0.50752047 -1.70585688 0.9675789836790821 6.457784573212793 14.119071970599801 
H 4.88469748 -1.68394148 -2.46290068 -8.331620176790762 -0.04524025874689556 -5.148566988559768 
H 7.36985974 -2.05270869 -2.10112117 1.971849642180487 -11.202039946846405 -6.507755072114372 
H 8.86461618 -1.81215304 -0.78300351 13.51451549882708 16.532935222060427 18.547594189842386 
H 7.0309422 0.06973187 1.77284596 9.676558248828986 -12.19565837488666 1.4002329074388087 
H 4.57565343 0.06552534 1.42919223 -2.6577154914729877 7.301199792570856 17.806056414056496 
C 0.96995448 0.12098729 -0.51075661 -4.41953725317288 -6.224965212217524 -34.84303673016309 
C 2.25955928 -0.23988981 0.20970462 -2.816505230353241 9.222167039464967 -49.173915312813314 
C 4.63552216 -0.61193297 -0.49603696 23.820584637532367 -74.35568258490058 -56.16787717297062 
C 5.36061333 -1.38306185 -1.5264919 -9.107353474095989 20.886604859381688 27.184088957700926 
C 6.69669225 -1.70786436 -1.31637132 -5.516873519049554 48.68383919069549 45.32766917369983 
C 7.29191783 -1.12454555 -0.12485435 39.47354814901171 -4.804427490998655 3.327054552839732 
C 6.59258878 -0.48379212 0.93186416 19.9773243958141 -16.232961629378035 -35.131088078043476 
C 5.24562387 -0.3795913 0.70688547 -28.248953885859944 34.03086078045531 20.465285013184882 
N 3.29542859 -0.40069868 -0.71694838 -29.400259239207163 7.454806307656642 -12.357554964908871 
O 2.34769317 -0.39799886 1.40180145 5.89538522546594 0.6993308472760655 31.846449158217766 
O 8.68429293 -1.16996905 -0.0399057 -20.289977972947245 -23.91941096355177 -21.842626831141104 
20
Properties=species:S:1:pos:R:3:forces:R:3 energy=-322831.89398769423
H 0.81821516 0.27043494 -1.38986104 0.8774423542887901 0.06578816584149876 7.075492986212789 
H 0.43239265 0.52189634 0.38002734 -21.774439749322436 -9.601603686297661 -15.344848071491349 
H 0.1000368 -1.10919648 -0.51508639 13.893207450042542 2.622355493685939 13.714997519882957 
H 2.86287359 -0.94327972 -1.72702138 1.2177480924064108 15.80361258887504 36.59042704972648 
H 4.91642552 -1.78232294 -2.37392827 -9.21108079850078 -17.74542894140958 -10.291068502466437 
H 7.29932731 -2.52726828 -1.84248934 -10.363490151242331 3.7030297880375507 1.2653754089200098 
H 9.09847946 -1.85934025 -0.38065608 18.906973859493746 -23.470169774992915 -24.333586237943123 
H 7.19620068 0.00484652 1.63204251 -15.18359301065532 5.413505498421866 -18.400847649510883 
H 4.72718989 0.46258939 1.19421305 -2.1487658415782906 2.555603255333596 0.502188098287274 
C 0.77662898 -0.22276492 -0.38919358 8.977260604542224 24.704349789641356 26.618963407368057 
C 2.22402872 -0.26957008 0.20506648 26.030767708574576 16.559347014230216 -1.7125129509422874 
C 4.61586366 -0.62307718 -0.61648215 -36.349669802645614 -33.04307777778513 -12.085173056337585 
C 5.3542396 -1.51020105 -1.41882412 2.711613429680738 3.185289646724785 -22.479110348771115 
C 6.70195617 -1.85801651 -1.18549133 -3.117460682862175 12.7027545864856 -9.033978425198667 
C 7.33386086 -1.18621902 -0.14351508 19.35829497816825 13.016177761477952 29.55362977590469 
C 6.63871009 -0.28938005 0.69687847 20.96618293817351 -25.986064626761767 5.834361688589476 
C 5.29979793 -0.11665967 0.46157284 -19.977178539825374 47.32059915662483 49.754983041295986 
N 3.14865296 -0.52245756 -0.78854988 50.275078223207196 -23.884448215815315 -34.68887643664856 
O 2.60628227 0.15877209 1.32361471 -37.97310506239217 -23.509772640484517 -35.63523989598384 
O 8.63376383 -1.31721598 0.2375772 -7.115787185374527 9.58815173234561 13.094820227464044 
20
Properties=species:S:1:pos:R:3:forces:R:3 energy=-322821.4428948835
H 0.89349803 1.55993589 -0.06936612 0.2418920778224158 50.58342134083613 5.022151350071353 
H 0.74215021 0.02483266 0.98331071 12.608619368526345 17.812573686528328 29.449521802943952 
H 0.17630481 0.05480125 -0.4495811 -28.065637810273916 -4.3083653442378536 -38.077132399521744 
H 2.84081735 -0.89083881 1.31125681 3.928517217502006 16.993065805289742 -13.59779096764204 
H 5.00818767 0.12731258 2.17215167 3.6938764353792384 -21.402210522810666 -18.06971898047251 
H 7.18709902 -0.55101349 2.1939935 29.18424651990463 -4.637897898147576 -2.0587703248925378 
H 8.97748938 -1.37686002 0.78864931 16.986757237322102 4.409193336183832 -20.44107291905644 
H 6.83479354 -2.09997175 -1.94010707 24.52061630504694 4.630970331593635 -4.0035251419804245 
H 4.33034849 -1.54225754 -1.78675081 38.955532897216145 -4.480626010206905 12.22117250052421 
C 0.99759062 0.52435666 0.04486975 5.255041860329414 -77.0740516370835 1.087466677306245 
C 2.24443317 -0.07583041 -0.56757736 44.33351831200969 -0.7672890656327491 -28.223174136307968 
C 4.59317339 -0.80012454 0.17180286 -23.289544327361504 0.7810872793303947 15.914958813503912 
C 5.3917967 -0.49172649 1.29835908 -7.268385752570748 -1.5283549424132084 -8.643846858347146 
C 6.73129393 -0.85532784 1.24846772 -1.4967018212176728 19.14986084117422 10.973737378217443 
C 7.32982032 -1.30600229 0.04666086 36.072845808433954 21.853724930315757 21.830616835581658 
C 6.55064614 -1.57479536 -1.02589343 -70.22329664143375 -28.63886370417576 -55.85210132902191 
C 5.15239971 -1.40337041 -0.99123175 -47.07890985420137 26.49086864627773 16.559610266502553 
N 3.19862643 -0.51630426 0.40733414 -17.3111789025212 -4.813271344363818 -29.47746567590588 
O 2.49248502 -0.07284286 -1.80427858 -10.724666339779217 0.7938490854333564 58.83892603629101 
O 8.69823653 -1.30370814 -0.16312195 -10.323143775954545 -15.847684813891087 46.54643825802732 
20
Properties=species:S:1:pos:R:3:forces:R:3 energy=-322818.182252436
H 1.12531243 0.55830639 0.75387594 -27.71157536219528 -2.5646830870870225 2.2781863505986615 
H 0.51044793 -1.17552477 0.08319434 13.301051108953589 39.201329883744854 3.378657927322411 
H 0.30510474 0.3261371 -0.93548775 4.689475184567229 3.059273629929056 11.449161495484102 
H 2.57811206 -0.63619285 1.31119799 15.33095143464684 -1.5427116778237788 20.268418560499935 
H 4.89878972 0.95234302 -1.13572215 -23.07216909967649 31.13121407906538 -27.248056888235972 
H 7.11176801 0.23430413 -1.77197385 -13.371045382047194 -34.34645637960495 19.472790743496756 
H 8.80546471 -2.39142281 0.17688437 -24.72449807504327 41.23914319328173 -43.451267453377135 
H 7.12520556 -2.20885081 1.76252096 35.75856528482494 -42.46437144484976 53.52546233046125 
H 4.83846847 -1.55658263 2.36040376 -10.169575207142246 -3.9910254023287504 -13.494347054467372 
C 0.93640672 -0.09993837 -0.11749074 4.252509615482251 -34.19861532644748 -34.024505965466865 
C 2.42132911 -0.23291835 -0.58485079 -12.814737597016466 -1.658198789547198 -21.43822627963646 
C 4.59473144 -0.50483241 0.4396353 -59.335370017428794 15.936601233424478 -10.077376434952008 
C 5.26165161 0.09897067 -0.65658634 41.28344902504394 -57.12110297870227 33.24512864008559 
C 6.54289479 -0.40348039 -0.98643443 -0.5282239851853066 66.05939038872862 -14.371291363916614 
C 7.20524261 -1.26885223 -0.11456555 -9.616594835968135 -14.854686570258176 20.77398387712778 
C 6.57221438 -1.59668974 1.15660388 8.615057494979027 24.83826693207024 -95.25872292398743 
C 5.2308411 -1.31627841 1.34722126 22.09361771385369 -0.26160398107920185 36.27174357257164 
N 3.16056229 -0.33659642 0.53665899 46.07363836273668 5.5493792455775575 15.60383731716291 
O 2.9574869 -0.21901404 -1.68908373 -33.68877275330473 5.4843476335637575 -12.74624457336779 
O 8.41669438 -1.73360863 -0.54755549 23.634245904098687 -39.49549295329915 55.84266812259661 
20
Properties=species:S:1:pos:R:3:forces:R:3 energy=-322834.8407763115
H 0.00345039 0.11898966 -0.16710187 15.198451348368579 -2.9957124360129765 2.549332633639444 
H 1.16270891 1.45125559 -0.38155414 0.9212536986745941 11.776001049797111 0.6786382700137834 
H 0.74988457 0.82336221 1.31904771 12.410399894027286 -5.989690015834851 -29.513322532711435 
H 3.19501548 1.06785761 -0.30687554 20.659994457386148 9.99962570639292 -3.61876534446977 
H 4.39765868 -2.52274306 -0.29151244 -62.346449508384005 -65.90553722286514 0.5642041673797 
H 6.66955416 -3.12935016 -0.17987862 12.521919248528953 -15.350711956566533 4.476485123112355 
H 8.73957501 -2.46487445 -0.44857411 -0.9293137243279885 16.036265934923794 6.623083283817554 
H 7.70304681 1.02693368 -0.165685 26.927164226471405 24.37690428077356 -3.465098352510609 
H 5.37526244 1.65568201 -0.17683887 1.2408905759508635 -3.6118946973260644 -9.669961526347032 
C 0.96831422 0.54954408 0.21466023 5.977393051582137 -15.541605428640011 21.188359555275998 
C 2.16797872 -0.49517994 0.06221741 -61.493298698233765 -47.73998137123157 -0.05763920360961318 
C 4.63970025 -0.42093605 -0.29635995 51.344113683986926 20.700360991631733 3.572352308707837 
C 5.05027713 -1.75941344 -0.18762672 91.07194455493647 56.45537118495913 -1.9032700535954117 
C 6.46528187 -2.06812121 -0.11974468 -63.26106616666106 20.996337181566204 -16.76439563213635 
C 7.45717367 -1.07619256 -0.21070782 -20.997409163792288 -54.864532959961146 0.2275483864433576 
C 7.01032287 0.23038827 -0.27991529 -18.81755346601557 23.160071642215087 1.294401936497439 
C 5.65123854 0.59724015 -0.35160502 9.634842250232433 -29.17213810119832 21.30819625859816 
N 3.37293829 0.06914629 -0.24823269 -61.036112508663024 13.853724352476643 5.0029623938960945 
O 1.91520901 -1.71795381 0.14426385 22.192898209333922 36.94218070422749 1.784271725753161 
O 8.7449258 -1.49874669 -0.23871701 18.779938036597983 6.874959974851913 -4.277383397754664 
20
Properties=species:S:1:pos:R:3:forces:R:3 energy=-322830.197934811
H 0.81244818 -0.0865451 -1.53217387 -12.683891731098143 17.079694776024343 -45.111925635774874 
H 0.09277958 0.15059951 0.19687782 8.463517865977375 2.5518477600791747 -19.48112232216981 
H 0.95189589 -1.33637438 -0.34111645 -17.70730242312093 4.836426871939783 -2.513277744719118 
H 2.65399706 -1.27678087 -1.31568062 5.915090013796448 -8.981338643121306 -11.879525598802942 
H 4.74563606 -2.54082238 -1.75248909 -9.100938182234158 -18.75017155668751 -14.664002988509939 
H 7.1862797 -2.93749502 -1.58054083 -20.005772242720813 43.55569322637834 26.866047009732263 
H 9.01532456 -0.96892606 0.8357589 -4.041286427386734 -2.1383982081683115 -25.501782426277384 
H 7.08348211 0.55230737 1.17666142 15.617280970367638 0.27928101542010964 6.897136014243428 
H 4.61630192 0.60265351 1.10154276 21.49000989891821 -13.41710741477935 -8.081669259135998 
C 0.89669329 -0.22720089 -0.4941811 0.9780070939624351 -21.231242401782353 71.4317395960879 
C 2.30180763 0.08712261 0.07406272 -56.480343390378394 -60.959254703351995 -71.07605731645967 
C 4.55934124 -0.96282045 -0.40606054 -34.002570647747795 43.79010395921808 35.69885208020492 
C 5.29417011 -1.92665059 -1.06036675 -30.80214399536381 -9.82680058960571 -29.50822587385337 
C 6.64883309 -2.05406755 -0.99439245 69.75569301396908 -24.645091940303203 -0.9388951583841053 
C 7.37544413 -1.13779751 -0.15082064 16.05019340311551 -44.341319828674926 -33.39014981079436 
C 6.63432656 -0.22829667 0.55961066 -11.435270787744827 32.70706826931916 31.511656302145546 
C 5.24631739 -0.14481225 0.53207221 -32.561616645570496 6.538512898419764 -16.124635690954726 
N 3.14151851 -0.72018986 -0.62996066 74.0970905892796 -15.492266972356244 -1.4293163544264724 
O 2.49708614 0.67892316 1.06876389 27.118717015046766 64.28246126689567 81.72378047181249 
O 8.75877034 -1.21950187 -0.09828541 -10.664463391066965 4.161904586778571 25.571373520215165 
20
Properties=species:S:1:pos:R:3:forces:R:3 energy=-322829.1849163116
H 0.6257933 -0.87281348 1.004438 -3.8203738955198654 -1.996648717726969 -9.236012686004473 
H 0.20372211 -0.49392241 -0.81342402 29.477223768412383 -7.614583835468671 20.579783150155475 
H 0.52057479 0.77088088 0.29131166 -10.67182615394499 8.170643783900672 10.793503251531396 
H 2.86186478 -1.53977679 1.11605271 -4.319213235171685 7.782211498608856 -16.42929920587622 
H 4.45905111 0.50127938 -1.31999707 -2.3778178491086726 -4.993322854608697 -10.241253346121956 
H 7.03878253 0.36344471 -1.98790687 -14.119945920711107 -13.616340766273208 17.829076758033153 
H 9.23082774 -1.31487688 -1.05860621 -24.173227657818284 8.045398550785201 9.770549982441608 
H 7.32347812 -2.7128789 1.16485219 8.518803214809587 12.07095150452632 1.1089940725852978 
H 4.91807088 -2.5895227 1.70023814 -11.962455993693355 -16.89641308924866 18.94822145877691 
C 0.86183737 -0.25422732 0.10622896 -30.533831824624283 5.689543293279664 5.395573512555951 
C 2.32336516 0.00021795 -0.11035672 -16.505067241645474 17.400427351947624 -44.75253766537619 
C 4.60446488 -1.07351644 0.14866517 -32.17779483250766 32.38176316744039 -30.968665287467566 
C 5.12981916 -0.27827279 -0.93919117 24.690965427488955 -8.031127194489981 28.588744977643362 
C 6.52743288 -0.28311664 -1.20668831 -2.220390618610904 -3.5992206419805473 12.298959989535739 
C 7.27053391 -1.09210878 -0.32641433 65.33635497873202 -23.525395832772798 16.068108787486775 
C 6.70029525 -1.93368179 0.69146889 29.780164285353244 -8.078456869920895 -20.47498147188251 
C 5.35762949 -1.96967868 0.95162766 -15.964855791500606 43.96192587139991 -39.83722167667263 
N 3.18829479 -0.92184425 0.34625486 33.60960615441607 -47.608286457443924 45.97010314134143 
O 2.62359051 0.97430065 -0.81237641 7.744532034854757 1.3024145293089715 1.8933530321831216 
O 8.72609539 -1.11779429 -0.22261834 -30.310847663389094 -0.8454832912632448 -17.304998403226584 
20
Properties=species:S:1:pos:R:3:forces:R:3 energy=-322826.628378724
H 0.72369333 0.41378638 -1.51242957 2.4719981282676966 0.0645169656795981 -3.4987246799276024 
H 0.37096116 1.1009019 0.15641622 13.414390698761705 -39.73822103495938 -21.54387107667352 
H 0.1069904 -0.73822152 -0.22975269 12.515949825380623 17.652774813937462 -1.0755847504198228 
H 3.03751573 -0.19428216 -1.68796852 7.632466016850632 3.2912973050020904 -18.837210821504215 
H 5.02674151 -1.25779699 -2.65092245 9.842526948325045 3.173992329614312 54.97304507228877 
H 7.43409152 -1.83858822 -2.02179188 -6.913515760359412 4.808228047452844 -18.52733562308314 
H 9.02546531 -1.55250086 -0.89920706 1.5992883857756839 6.832423388091149 22.856071001258613 
H 7.05476148 -0.78646054 1.91152725 -0.054259613626948186 8.062061708131308 6.286710914111337 
H 4.65889743 -0.33372327 1.57387326 -30.600973012279898 13.422957070001974 51.77824751241275 
C 0.77384008 0.15638584 -0.43909131 9.27485069692105 28.789931376400883 27.125367099475813 
C 2.21545336 -0.18966948 0.15129796 -18.099479531277748 -28.83679028087632 -59.677979805839854 
C 4.63540454 -0.64484704 -0.42972338 -3.98113209733739 -14.423324005618143 -88.70005699688157 
C 5.43200045 -1.12024463 -1.53397877 -55.818005416470484 10.306230410367615 -49.54369819050604 
C 6.75176939 -1.31661001 -1.33249113 52.128401494321956 -16.31013960637164 -15.055654777943134 
C 7.38683292 -1.03954747 -0.12565326 53.59042279321226 -28.326913318923225 -32.69773111439863 
C 6.60203525 -0.75270856 0.91480458 11.647960836474924 7.430039249278417 70.23330378524558 
C 5.262754 -0.55235043 0.76275633 -7.17388055844497 3.9667433447585636 12.015328196695842 
N 3.31890716 -0.30804444 -0.72947078 -46.56613830307365 22.526219461487372 22.679799888510132 
O 2.25636765 -0.66360796 1.24848189 8.284601186474044 -0.028527296916832236 64.1062079414629 
O 8.74905346 -1.25700339 0.01356933 -13.195471532074086 -2.663503484001194 -22.896232388463137 
20
Properties=species:S:1:pos:R:3:forces:R:3 energy=-322828.8634557871
H 0.30141963 -0.87475482 -0.43471074 10.102294092603143 4.828817458284077 -5.347497955686756 
H 0.38181394 0.86896203 -0.98689941 16.144912045029667 -23.057983122496626 18.029773412698454 
H 0.51651083 0.35541785 0.71572126 6.235073150818309 10.281574819167766 25.751410800607488 
H 2.55067229 -1.2166368 1.08228298 -1.9839070705817987 -10.804021484214285 6.018493609055531 
H 4.48658301 -3.10422386 0.60053137 -1.4467585962001634 -10.719738067509759 9.104806330488 
H 6.85371345 -3.38779912 0.53423653 17.214029327461613 6.313758306362076 -11.598073345046602 
H 8.9878372 -2.24923006 -0.55724468 -1.0629557562740746 -39.78548667605379 5.981953719327166 
H 7.32730874 1.00305143 0.01698183 -8.580052057684895 -30.735639593610202 -19.590156195757906 
H 4.9857761 1.0515156 -0.0053917 -32.663147829397076 62.38644250899991 -1.352660138693351 
C 0.85783715 0.09182164 -0.27564775 -60.43434983127597 -2.4009757483267298 -37.63289537577932 
C 2.31317288 0.03882531 -0.53657011 24.74079955697018 -8.8092854958354 52.99133414228517 
C 4.55464553 -0.96324573 0.31818649 -56.82214800629886 -11.244607364954378 6.021734457975749 
C 5.14271048 -2.2413194 0.50774905 -24.972122411804705 34.18646777564663 -16.942004351025336 
C 6.5105509 -2.35986347 0.31139791 11.106795986208626 -5.23433268157248 5.801040117181445 
C 7.31085941 -1.22980758 -0.05089529 50.347003012964585 -59.07203710926371 -19.03379504878008 
C 6.73198242 0.02645536 -0.07758165 51.30991697664655 33.782217823414896 18.46677337059378 
C 5.39321817 0.11664321 0.11743828 -18.11535886091209 -21.83967295091415 -0.634402401693315 
N 3.07133239 -0.74413061 0.35514313 36.81636271954653 -9.401580577986802 -11.71438223075528 
O 2.82926921 0.77873132 -1.32866594 23.456973958386914 22.94028564034244 -44.55855157201331 
O 8.64288719 -1.37205093 -0.51857604 -41.39336040620649 58.38579535469946 20.237099840839523 
20
Properties=species:S:1:pos:R:3:forces:R:3 energy=-322817.015635799
H 0.76782395 -0.23674113 -1.69143948 -1.2988475796009515 -16.046965598226805 52.91027378718517 
H 0.50465894 0.74824302 -0.21310028 2.0989376412022964 -0.9416296617174476 -1.0448162517250128 
H 0.10214919 -0.90363978 0.0976504 13.932165228884822 -2.7394067033697564 -19.983444418235344 
H 2.94685981 -0.32802369 -1.6959673 12.90493233163804 3.505498089745491 -21.019174909101693 
H 5.26233494 -0.64253054 -2.53575803 -20.25179216360627 9.686812043418495 -4.76136914297741 
H 7.32173211 -1.38468457 -2.22622315 38.52593720593546 -15.593933339782133 -55.638455508528295 
H 9.04149941 -1.12469132 -0.7807025 14.408915094081525 -6.08699256180944 0.8073970908901801 
H 6.94911059 -1.09882862 1.93965244 -6.302409998946601 7.1993733393036825 0.03501255222040938 
H 4.49665465 -0.46721909 1.60531528 -49.5492276740461 8.22584849690172 64.29127547473468 
C 0.83946774 -0.28312658 -0.49028929 -11.70168801645197 26.534070478645607 -38.87559670046827 
C 2.23254073 -0.38011998 0.10191213 6.59299307476137 -1.7474792561418813 51.51196546730492 
C 4.68909601 -0.41738733 -0.48625152 -73.99827137818649 8.033883042602161 39.449401275040834 
C 5.55125533 -0.615742 -1.48000627 -2.5202147978414304 -5.867807771207394 -103.32748096356862 
C 6.84911255 -1.03424076 -1.3838425 -48.723887924900595 18.399315568718745 -28.34138863643845 
C 7.29257805 -1.16820459 -0.17179951 92.3626479155897 -16.25285259161285 135.0010729878309 
C 6.45858451 -0.8798013 0.97163681 69.56942187233506 -36.92430682359285 3.3794903736970885 
C 5.14297108 -0.59720162 0.83340328 25.584526647263488 9.448301927220836 -54.807334881780854 
N 3.3006748 -0.1728354 -0.76336072 -7.774776400646992 -10.32464383957843 14.80867671365207 
O 2.34017176 -0.52552617 1.3405514 0.7330935441134121 2.48346383196678 -34.97646650014184 
O 8.68749347 -1.56051106 0.01492802 -54.59245224993569 19.009451328515475 0.5809621904095321 
20
Properties=species:S:1:pos:R:3:forces:R:3 energy=-322828.33049460937
H 0.33269676 -0.82185445 -0.49829302 -29.062172172267633 -43.182629181849805 1.2130996739039384 
H 1.15732667 0.24838575 -1.5290992 -1.995981100477762 13.77550166714103 -41.69235095324129 
H 0.37528286 0.79093203 -0.08315553 -36.477519098779304 59.30427067466199 33.53675761006342 
H 2.96140129 -0.50205946 -1.65341035 -10.094336047559752 -1.2844600128431714 -15.602955066304277 
H 5.15394194 -1.26728441 -2.59123517 -27.69615375948491 -7.012473712514982 -63.74432144611912 
H 7.47004959 -1.48543037 -2.28022363 8.089525323569385 -0.7032286410560725 2.0404007710604453 
H 9.10654866 -1.58041994 0.87607928 -14.403086783637734 1.5191731300497786 12.329443891179379 