20
Properties=species:S:1:pos:R:3:forces:R:3 energy=-322824.6490064829
H 0.98802398 1.51531499 -0.29577132 -2.965067262707008 -2.3235238466713746 5.2193107005547965 
H 0.79494629 0.18336126 0.9865509 -12.805612704063272 8.007668096726102 -28.18054149804243 
H 0.15099172 -0.01090625 -0.83562342 5.49528446107608 1.4034879862115859 16.124415128240067 
H 3.02118748 0.71691684 0.95226302 20.116415275469084 -9.074819287862866 -6.700516212336164 
H 5.32994426 0.86786231 1.80529649 0.16747587804622563 0.053020430633304354 14.308593447722421 
H 7.6213212 -0.26316291 2.03793022 -30.49911217020237 -2.018680086950805 -45.52287073363543 
H 9.17203674 -1.80649777 0.60459023 25.42940109541707 9.228406829811908 41.91554500480172 
H 6.74908737 -2.40252733 -1.56070765 1.8060860897254787 -3.8417163027156565 -28.354078107457568 
H 4.41569593 -1.37972462 -1.6272209 -6.657060614264326 -9.726087622301248 -8.44377038808919 
C 0.9140171 0.41284822 -0.13686356 40.609929944488115 0.6777761781129422 21.208685713834896 
C 2.30216306 -0.31577962 -0.51753859 -125.8336422620536 -15.062483921350212 -28.412859256735008 
C 4.66642087 -0.36977552 0.16947311 21.806284973527514 41.897497994294284 28.824840762190245 
C 5.62562521 0.09577244 1.09426506 -16.455821279403338 -9.354824839942417 3.0059353992552764 
C 6.90775232 -0.45498731 1.0929001 57.368392913928574 25.284821050137616 64.3843375246468 
C 7.36876751 -1.22846433 0.04374222 26.03233417817707 -45.66712942141127 -34.64303733827317 
C 6.44555467 -1.54360264 -0.9841174 17.213588202032298 -0.34281256381002534 36.687978618120844 
C 5.14691607 -1.09793407 -0.87408478 -13.573404557819757 -36.01870477691166 -50.60894139557892 
N 3.33948745 0.02726497 0.2420387 4.179261449436911 28.49280494005126 24.494791494295193 
O 2.07879722 -1.20177692 -1.35043925 53.48370364230703 -3.067569633970714 -3.3829090957742896 
O 8.61988246 -1.89557095 -0.14717449 -64.9184408105809 21.452872355382386 -21.9249097677401 
20
Properties=species:S:1:pos:R:3:forces:R:3 energy=-322824.35039070563
H 0.56375892 -0.74594348 0.69577557 5.014336789374594 14.101818274372512 -6.530044950326356 
H 0.15781656 -0.07309035 -0.97449166 12.750224188800008 -19.009035105328138 -3.036808250202183 
H 0.85703563 0.9679285 0.05159119 -6.135036101510379 35.30489979794141 30.103892245240107 
H 2.91685428 -0.74994923 1.41497217 -12.279443746751634 -7.408084958422608 18.709621220179713 
H 5.20748348 0.86896801 1.76090301 -10.362909098929524 11.941080383508261 14.623981528188905 
H 7.69281016 0.12035049 1.64646287 -30.543219969849808 -15.146283523067746 -25.805886233664904 
H 9.07537912 -1.14031618 0.50293204 17.84456832418527 18.663788050909545 25.85970353604149 
H 6.59064687 -2.60358181 -1.57742282 14.373208836548882 -25.8283622857812 -35.57528359804927 
H 4.36535092 -1.88736792 -1.54532917 -35.64320031266932 -9.614832705892963 -9.15958059044915 
C 0.90477792 -0.07931359 -0.14398703 -9.200236465030088 -24.099106727482685 -7.154965526931464 
C 2.3621677 -0.18774563 -0.5696614 -9.104935584982073 -0.09437475381065842 42.47948236244594 
C 4.61954431 -0.6014674 0.26931803 -26.315524845587646 -5.609640299521091 0.32174408127598714 
C 5.49074067 0.07126488 1.10364853 75.6305398189088 -42.29604889057631 -27.967009516369284 
C 6.85634058 -0.34251671 0.96358814 24.60498628668786 2.406719865476214 20.251790977785227 
C 7.25030608 -1.36549752 0.02936772 5.544338320308678 45.08725462890142 1.201893665014049 
C 6.27962629 -1.85927641 -0.9043665 57.32262377899492 6.9431968611545365 52.72768224825858 
C 4.97694662 -1.54548241 -0.74578563 -3.7036748746868735 39.1150946055977 25.682271504488437 
N 3.28051152 -0.33434761 0.58068346 -49.75326004331535 10.946883274797292 -93.13109552838493 
O 2.68075621 0.06212169 -1.71522161 20.251188580693572 -6.066977088364737 1.220888146537673 
O 8.59898588 -1.61802442 -0.1589077 -40.294572695368835 -29.337989404410774 -24.822277321078573 
20
Properties=species:S:1:pos:R:3:forces:R:3 energy=-322827.8538099133
H 0.64545216 -0.58078356 0.99604848 -1.7060407396702222 -3.0393067751472618 -15.566639296753713 
H 0.6492262 -1.30962282 -0.71656777 -3.8522772249562234 31.85702786777403 15.209402405733462 
H 0.12454636 0.42630886 -0.27860017 -37.283519292476655 42.5219857462174 -20.89297509004375 
H 2.66117926 -1.74243145 -0.56279099 -4.386935475140105 -19.64909505923454 -11.815812619792904 
H 4.57118355 -2.99007694 -1.19587442 36.45918037629443 31.21298711261436 13.422335699773585 
H 7.00005979 -3.21417327 -0.928368 28.298182060786385 -36.30936730273655 -2.0484536817875605 
H 9.12155272 -0.65638754 0.424685 13.110767148898036 9.864669784727258 5.124391654883771 
H 7.32289125 0.79031946 0.56171759 33.63667963472983 52.4064860163061 27.34468588785612 
H 4.81709653 0.90003944 0.55576639 -4.3490401919555355 26.27581169873872 -0.028534411843111528 
C 0.80487577 -0.34012614 -0.10270619 30.204700078228292 -76.25982896024938 23.765332491689456 
C 2.23662023 0.12386324 -0.12021522 21.701945765462703 -0.1672920757840105 1.5788448309331773 
C 4.5424873 -0.97130852 -0.40516446 20.37239134986136 42.32319589179496 1.8659961406392331 
C 5.26436325 -2.11346049 -0.78071981 -71.82520332008022 -50.71106786157087 -16.799420042567224 
C 6.61367462 -2.3179286 -0.53689159 -15.376809506158988 54.78037405446651 -11.257237544921173 
C 7.36968089 -1.19101053 -0.12490572 47.04966632137241 -56.49761605974244 36.27496781999721 
C 6.76107397 0.02969751 0.1544224 -37.958198106016006 -53.351707529973545 -16.905013849299287 
C 5.37164643 0.10049797 0.09966308 -33.40030162477387 -18.26283705282931 -11.05630609768866 
N 3.11566467 -0.84593861 -0.62710137 26.61507510015642 -1.2464141303856893 20.726592539002446 
O 2.59804704 1.18551381 0.36464851 -0.22968642179028567 9.513531571349413 -3.120563976540994 
O 8.6902532 -1.51827597 0.38034268 -47.08057474695073 14.738461877843804 -35.821594045091125 
20
Properties=species:S:1:pos:R:3:forces:R:3 energy=-322825.69563177176
H 0.08122095 0.19588322 0.4636381 -0.9064866691819179 11.92788219526017 -3.147220047846372 
H 1.0796144 -1.30389436 0.70344928 -11.595455052175822 3.218596988280257 -3.9374393350562413 
H 0.60251093 -0.85811231 -1.02791691 -8.137319840850548 9.395506802586377 38.25065359326328 
H 2.87348248 -1.76664352 -0.77833862 -11.317798611589483 -2.4002298668884507 1.3666836583898412 
H 4.35643451 -2.95158012 -0.66406192 19.78753373731391 -7.029993032656699 5.979150438373124 
H 6.98439618 -3.48366633 -0.44460966 -14.296809943982863 44.30480602700958 9.597468728308346 
H 9.14119187 -0.585356 0.14899803 -11.246877026437474 -22.986500643989597 4.070343786311374 
H 7.44913625 0.73859556 -0.10287428 23.49862355100486 29.328762530847573 10.571965791972993 
H 4.98411546 1.24321958 0.09129506 -3.0051183685542044 13.981495384421265 -6.227717502866564 
C 0.86373519 -0.4335832 0.03512104 12.008042512185842 -39.87256981624921 -46.36729982998829 
C 2.22074946 0.15608434 -0.23734504 55.559824900752666 46.49384235132869 20.617512418393527 
C 4.57328027 -0.87390363 -0.28264436 8.670856304324394 -9.59802013509499 6.2816913336212945 
C 5.13693344 -2.21772346 -0.34538085 -7.189231011892547 33.13999018863541 -20.49910581525351 
C 6.53101284 -2.41303317 -0.28498851 -21.698229402302818 -58.8500431086024 10.165704687246311 
C 7.29295909 -1.29966842 0.06975842 101.7027934767969 -71.12997659944627 -17.008621405778374 
C 6.77486079 -0.0773433 0.00329706 -49.627251141445896 77.80816261565485 14.067106920697926 
C 5.39348116 0.25046836 -0.01691848 10.225774824001348 -51.829765507780074 -14.818387402202262 
N 3.20029681 -0.83288036 -0.53928371 -26.767935733803927 9.57559744492579 6.150674709472268 
O 2.57246817 1.35044806 -0.09062516 -20.485320645587375 -42.043842541291006 -4.705380602264593 
O 8.73467127 -1.49791887 0.2195307 -45.17961585857504 26.56629753722767 -10.407785310615127 
20
Properties=species:S:1:pos:R:3:forces:R:3 energy=-322820.7828122047
H 1.34028021 1.12359134 0.68239036 -20.49275574354924 13.831870856409791 -10.965559956280439 
H 0.47412515 -0.26481832 1.03542345 -11.544991251718878 -19.144397763612766 -13.546605002167746 
H 0.29504334 0.52736951 -0.68779881 -47.83677045669301 13.92036156618747 -32.810698356398134 
H 3.196436 0.73057187 0.83227418 -10.47018084244245 26.165448519757437 34.02834446819454 
H 5.0975778 0.18823817 2.08083401 -30.784925873767914 34.46617924410664 66.26331603410367 
H 7.44501982 -0.7502216 2.20641078 -22.57943080930917 9.350419514754488 -16.4528958588815 
H 9.16003875 -1.60938805 0.75198652 -20.38978260133005 -5.602231289622252 -40.95317414715908 
H 6.99030553 -2.01597825 -1.79017083 6.392997240334581 -14.549266501508985 -19.915175514764464 
H 4.47852042 -1.20847922 -1.78748938 -9.096952637696704 -16.183138172286224 -31.24763680359453 
C 0.85452186 0.26913598 0.15004682 116.47489354026816 -7.094498140125832 34.24177921254187 
C 2.23608108 -0.30648053 -0.55194989 -40.5096818190339 -21.906641008696965 -31.727353593049695 
C 4.66528114 -0.33670504 0.06460072 34.37302825761602 -10.165941851455619 2.683390888772869 
C 5.5021406 -0.16735194 1.21415802 -0.657036168008798 -36.55109573725454 -64.71278030901475 
C 6.78580195 -0.72996071 1.27093725 25.95269325086978 22.570800403732385 50.600663178852955 
C 7.35217076 -1.21817837 0.13820425 11.217839826470625 -60.59800025062604 -72.84426116703209 
C 6.50819107 -1.53963286 -0.96105999 -7.612777830014778 23.934361795306664 10.407735506131175 
C 5.19137817 -1.12399673 -1.00095007 -4.999056299368762 29.90016107451669 25.214412925498763 
N 3.37377391 0.24028058 -0.00330767 17.345766930806942 -25.636457308355013 1.94713831739145 
O 2.24446826 -1.02547665 -1.57225066 -3.367651136368342 21.48173879711853 38.92498614705704 
O 8.62088048 -1.72538333 -0.1171975 18.58477205129379 21.810327437475202 70.86437284397704 
20
Properties=species:S:1:pos:R:3:forces:R:3 energy=-322833.27971184946
H 0.2320643 0.81802231 0.05035755 20.511261666801683 -15.903810909845301 -8.657435181719553 
H 0.49628626 -0.96764036 0.10082829 -4.388137897681307 12.446613682967849 -13.38107505645891 
H 0.62333261 -0.06890369 -1.46242722 1.3387575727436092 -4.389278657528086 -28.91218241137382 
H 2.81092502 -0.95811829 -1.67790503 9.64335170206247 2.757202319815319 7.159864153674759 
H 5.13482212 -1.2255552 -2.61261707 -14.071984202662382 3.5523344636210417 2.4759741862367757 
H 7.41844391 -1.26707096 -2.33762616 2.9657253933878422 -10.65289214929474 10.649059575672293 
H 8.91907488 -0.75015443 0.97086577 -2.4456005659504667 -4.279249880081933 -16.325629986702708 
H 6.77802074 -1.10444773 2.00990819 21.434164842552025 6.539264708963276 31.611687422348247 
H 4.47880659 -0.76644899 1.78339693 14.037357042282101 -25.652528740998893 -48.30132296660491 
C 0.85491131 -0.02044483 -0.41553967 -16.084520550771014 -2.4968837687505765 50.625069747633034 
C 2.29715053 0.0015108 0.06757281 12.258115569408401 20.216696603912602 31.73005370757269 
C 4.49604726 -1.02616472 -0.46996374 53.79294679811029 -6.615075434290207 -29.84640187737138 
C 5.42353441 -1.20177926 -1.54897876 20.563697487659034 -15.517219018817729 -3.4912931394288793 
C 6.82843156 -1.36551905 -1.40160397 -21.029109717829684 31.914847316182712 4.743901998961741 
C 7.38932052 -1.13491194 -0.12005457 -5.626087637436728 0.7671835275596063 20.185980281343838 
C 6.4903281 -1.03625129 0.99130142 -39.26710737719692 -28.421521679480055 -56.96449277890557 
C 5.05246872 -1.11530981 0.80225925 21.72718240897536 50.701497099904174 70.10685375794682 
N 3.22502867 -0.64343652 -0.78552702 -68.82553735669805 11.565369586403824 13.199951563987948 
O 2.54813606 0.47716819 1.20440638 1.38817785067959 -23.904326134018618 -49.00040597728224 
O 8.74503489 -0.95418354 0.01630514 -7.922653028435854 -2.6282229362242644 12.39184298046984 
20
Properties=species:S:1:pos:R:3:forces:R:3 energy=-322823.48002262844
H 1.2674398 -0.16967402 -1.69227414 -20.571462243871842 -17.063663661296047 -20.06860297087222 
H 0.13795277 0.53379037 -0.4750167 -12.490177190754926 19.174675332394305 5.925490850195729 
H 0.58666442 -1.15513115 -0.20606432 -15.748701959493536 -26.81136998709693 -13.614898807880603 
H 2.83067515 -1.78856075 -0.55120728 -14.373815976924716 2.2927885509658674 -10.48367904341532 
H 4.65503993 -3.05944622 -0.75530448 -22.605833114910585 -32.84625045719472 -16.417838245461322 
H 7.05751567 -3.34509045 -0.66413742 1.6528519224483078 17.370750994436687 13.226978797280896 
H 9.14761847 -0.73594811 0.20658025 23.65310875948614 5.2594139825280415 -1.396465553973922 
H 7.26879303 0.87626029 0.58288685 18.597897904458048 19.377149532808385 -3.2068383867826755 
H 4.87284979 1.153939 0.11860801 3.266531432444912 -16.00889599934839 18.586626675410596 
C 0.86994968 -0.22462199 -0.67716731 53.05752430146146 2.5328437919871787 23.584657239574092 
C 2.23894386 0.09602807 0.00281543 -18.253185655331446 25.632357924997095 -17.195915910975575 
C 4.57880458 -0.98648758 -0.17582059 10.804799382820821 8.69975357740775 -15.982733229598377 
C 5.26183875 -2.22017233 -0.54914404 -29.18031552313532 49.48783297518207 46.42095941816569 
C 6.59651693 -2.37753292 -0.32027431 28.008030623832557 20.09164465962772 -18.478696801216834 
C 7.41368303 -1.1959279 -0.00793512 -56.678167986468964 -71.60308955149318 -33.588666926376106 
C 6.75055573 0.00979074 0.20833576 -13.516415184143652 -1.6325222064262699 22.216301573508616 
C 5.32242115 0.13037914 0.20909454 24.85462414758634 3.0659367583896158 -27.27738342853818 
N 3.20413293 -0.84338461 -0.44325176 -5.897260008540535 -14.98763608271308 24.041896791091922 
O 2.3942514 1.17578159 0.56732006 24.43516248296947 -18.002986901077954 1.8531050800421978 
O 8.70791865 -1.48741758 -0.21906025 20.984803886067468 25.971269137563972 21.855701694000356 
20
Properties=species:S:1:pos:R:3:forces:R:3 energy=-322826.6577164542
H 1.17095425 -0.03402784 -1.89600091 -11.34938651262746 -9.513908662442214 -8.55240226834251 
H 0.74832219 1.36581157 -0.86793074 17.755510791947337 -6.9079578171142355 2.735290718517184 
H 0.088771 -0.09306498 -0.35637189 -15.40156707796884 -19.618713138200906 -5.812115685756214 
H 3.08927125 -0.49446503 -1.80430248 -2.2969887291127447 2.380895054724467 16.161386656829375 
H 4.36076824 -0.91213004 1.7485895 46.75535621000836 0.1359603120920896 -34.65532125849436 
H 6.92813038 -1.07747594 2.1430095 1.9932133941551162 -8.15835274875319 -19.92079037741987 
H 9.03381045 -1.57140911 0.84918583 24.88840226009729 -5.537974018751848 81.25198852441142 
H 7.50844616 -1.4490588 -2.14795331 3.215915846894009 9.964418679520877 0.9462282757359651 
H 5.08263905 -0.69113678 -2.51636439 6.430269967469712 -0.11953431895529117 -13.57894589957028 
C 0.98458778 0.26257161 -0.86096776 18.919474784966468 17.336333724381646 36.47629058817508 
C 2.20983732 -0.13715858 0.10396786 -48.0305454739096 45.156702238492564 -44.45188459723413 
C 4.61500583 -0.70973856 -0.38947519 37.39940484007171 -7.498070988539988 -70.17875483128327 
C 5.17154201 -0.94754669 0.86291062 -46.592620058685185 13.272864142677115 56.317673645033835 
C 6.58842164 -1.12343743 1.07103249 -64.53407589147875 7.86898632533218 44.90896643455277 
C 7.35941393 -1.29627111 -0.03019295 61.85583620933208 2.966382338247631 -1.0919526383253404 
C 6.86121218 -1.13893292 -1.31024696 -8.382069747395148 -13.40627256787703 -43.85189472231166 
C 5.55168906 -0.80860112 -1.53919165 -45.91089391066618 1.2653789663831494 48.45020754228334 
N 3.27284592 -0.44017127 -0.78998485 12.757901194255366 -7.330974573228657 74.32133764992939 
O 2.08462501 0.02730101 1.33177612 35.8762568378739 -23.671432066297417 -42.93765278348531 
O 8.71367453 -1.51677831 -0.00390509 -25.3493961210485 1.4152691183090516 -76.53765615906642 
20
Properties=species:S:1:pos:R:3:forces:R:3 energy=-322834.73045516293
H 0.29667165 -0.8379434 -0.05310627 -10.193372263904395 -32.22781039260901 10.86978000452962 
H 0.82112169 -0.18172646 -1.66868385 4.533447222904389 -7.6440230287703 3.0335472423241727 
H 0.35232867 0.81927801 -0.30243836 -1.2665102396615573 12.850816202357722 0.5423044242920307 
H 2.70566549 -1.34003281 -1.30941118 -12.897426084413384 -25.131679376902074 -41.76571770139128 
H 4.91381679 -2.19353243 -2.22922211 -14.862356460787257 -1.9841217041912242 -13.041449979622007 
H 7.37898743 -2.26705296 -1.92148403 -17.606078366945404 22.61225077841451 5.101085528034895 
H 9.22459536 -0.49129456 -0.49251644 4.981334203828086 16.5100405751147 -12.362260302821579 
H 7.09031742 0.09476775 1.63407553 -5.98718911924768 -10.66421792611033 4.010613980196695 
H 4.60645559 -0.3637649 1.73954609 -8.362470497137783 10.892945018673956 0.05488928460266577 
C 0.88274289 -0.1031914 -0.56224423 28.36008903434253 48.99087671935217 2.7806697183265263 
C 2.34117582 0.01190479 0.05260489 -30.734643503931093 13.286536659343826 52.15729520994218 
C 4.51729063 -1.11553392 -0.32993876 1.7706395270020319 8.330748598321549 -4.418583853051454 
C 5.31096288 -1.62878729 -1.39706891 12.254476284616542 5.970233064103074 26.953469294747006 
C 6.71495518 -1.59177232 -1.28515449 6.92292169290064 -37.29621825006414 -16.38933822242856 
C 7.34259854 -1.01108344 -0.19287549 14.420855126199228 5.154899272948341 9.111625987326704 
C 6.55009241 -0.46657052 0.84532505 24.889844218489895 3.918683203562974 -1.8020412541356994 
C 5.16763988 -0.59930302 0.83901103 -7.065886649914694 -8.524675400632098 -17.867194975574474 
N 3.10187322 -0.99459583 -0.48413364 49.54046327069106 18.85078965830825 38.01118414783896 
O 2.65005361 0.73663318 1.04368083 -17.760199528365394 -34.176982393095294 -60.908610658095974 
O 8.72310301 -1.17272887 -0.04540603 -20.937936680844707 -9.71909127812661 15.928733310780625 
20
Properties=species:S:1:pos:R:3:forces:R:3 energy=-322831.07458486414
H 0.00093624 -0.31269139 -0.22351969 -40.16762106576738 -40.20125806557379 17.83577546112511 
H 0.87357095 0.25976535 -1.56708333 1.5081936129797804 14.517051301137384 0.30108826446614795 
H 0.84601138 1.08524209 0.09833096 5.1860863664725825 23.43623394828277 -2.649862984502739 
H 3.18704539 0.72470334 -1.23667113 7.004203796536348 -0.4300581614888305 11.843055672516323 
H 5.46024352 1.51720706 -1.19750239 5.397366473978333 -42.31077323051131 -0.4936964337729357 
H 7.88395318 0.5264316 -1.09749275 10.074206735294583 25.442188989583055 -6.553326174933256 
H 9.09287646 -2.08281752 0.2052843 -7.502553392095943 -23.001128932419828 10.018448243864794 
H 6.61111073 -2.89527944 0.86151293 -2.816681917689176 20.081822503899147 -0.767420691768916 
H 4.21659168 -2.11442633 0.75472933 -21.311249747793024 -25.729348600036438 15.926586974686373 
C 0.90092984 0.15727922 -0.46320412 37.2644856788585 8.394193581775065 -25.510564616948123 
C 2.16171962 -0.58900917 -0.06269013 12.653323636160199 9.464937810682875 16.21495375096514 
C 4.66975295 -0.42212673 -0.32980779 -9.5713332324424 81.06795739873432 -33.360526815230514 
C 5.70808563 0.42030142 -0.88719476 -32.83460213705447 38.6840130805457 16.123305199740496 
C 7.01591591 0.06493512 -0.66165674 -19.23735427545175 41.55943820123883 -41.68213984820945 
C 7.32815193 -1.09826485 -0.05508485 84.73710235036674 -11.813054400038633 3.011870433593255 
C 6.35826371 -1.87328305 0.44510694 -20.90937973840171 -89.479998773081 37.78622559456127 
C 5.00398243 -1.54630528 0.34003612 24.971548474418178 -15.152845856739347 4.039398600280627 
N 3.34785575 0.09973597 -0.42803331 -24.275877070891763 -20.982820007456592 -16.761491556393352 
O 2.1542123 -1.58809181 0.64657863 -0.29319069629613087 -3.3127820107234673 -3.422003244036921 
O 8.71457932 -1.23913341 -0.04019967 -9.876673851181476 9.76623359383217 -1.8996758300033216 
20
Properties=species:S:1:pos:R:3:forces:R:3 energy=-322840.41831678996
H 0.3886228 -0.01109657 -1.30536996 -16.871249966640892 -27.479944193888652 -34.53783366666541 
H 1.12658297 1.26433851 -0.55491407 2.3049420308719495 0.1022675786964894 9.207334789814729 
H 0.18016058 0.12422693 0.4245427 7.137201927654158 -7.707167999499041 1.4988137685015768 
H 3.15870706 1.08357524 -0.63716347 8.498525674913596 9.944249049340124 2.1717482392814587 
H 5.12993516 1.36490905 -1.2589978 30.06393719089768 -27.234162623033555 11.41294296325935 
H 7.65735157 0.7688176 -1.39047568 -1.1513705735047772 -5.113177345246557 6.266034938343706 
H 9.24727406 -0.82569382 -0.35969766 17.53121748427676 22.097526180023113 -12.70543217040871 
H 6.71804815 -2.81367407 0.96421662 0.15164753871688796 1.3470014006592186 4.76530013974672 
H 4.20578955 -1.97643875 1.17871036 25.31126130201252 2.8227438348791356 -11.796693627059392 
C 0.91608815 0.17772986 -0.40557487 25.855376475042636 32.63709771264649 24.02043817343357 
C 2.23596481 -0.60767426 -0.17719351 -48.384323324937064 -47.75057905392458 4.483748277022468 
C 4.63558068 -0.2560985 -0.05007137 8.333572038233383 -30.06632069120124 10.214048239672026 
C 5.59336966 0.43243756 -0.72387136 25.323949587210596 75.11708997814245 -49.99192075878592 
C 6.97740819 0.12702726 -0.79511189 -24.074320695967714 -8.392908151760606 5.811331858044445 
C 7.36539885 -1.0713179 -0.14553382 2.7202888964572915 1.967165649046618 8.309199858263657 
C 6.39278035 -1.85779626 0.53237442 -28.42237547063357 15.700241010784215 -0.691723805262453 
C 5.02989323 -1.42552485 0.63178344 4.14651737287855 -24.20276408844573 9.048108668789347 
N 3.33427756 0.18551817 -0.19837603 -16.27788290226341 0.45036297526889113 8.028180429189307 
O 2.24235902 -1.84145789 0.02703513 0.7615496917674515 37.387113804924226 -1.8973611073204577 
O 8.66122961 -1.50814919 -0.05724443 -22.958464276986035 -21.625835027410993 6.383733606318939 
20
Properties=species:S:1:pos:R:3:forces:R:3 energy=-322832.6742757447
H 0.73108989 0.0431194 1.33613755 -0.804362574832061 -10.659704691207166 -14.607013614833834 
H 0.02318601 -0.27691901 -0.36946815 -7.779994013251808 1.7229137873415694 4.030633011104538 
H 0.93109472 1.16720722 0.10230181 -2.7402059467551303 73.03865518283499 -15.819503776719847 
H 3.01928468 0.04884546 1.45283203 13.702227413032668 -3.703568150792684 -32.36509052352591 
H 5.24838867 0.27691865 2.04791079 -0.7062287683038417 5.244923249339211 1.1784713277026106 
H 7.77428809 -0.11662451 1.75751671 -43.74056035589326 -23.823570534927573 -34.45019674804125 
H 8.98590214 -1.22507729 -1.19858696 -0.34066029861053876 -3.9660247372043553 15.434592194115233 
H 6.804247 -1.77539173 -2.06094583 5.576646014721908 -11.824279382065265 -12.41519535433953 
H 4.55961962 -1.56469107 -1.84430955 -15.866884442455762 6.005603734279542 8.25265516748001 
C 0.8489591 0.14603362 0.21852216 1.7893660129691358 -59.21665984410085 18.44907973475822 
C 2.13150165 -0.42886297 -0.35666115 22.608089732362167 0.4114253553844041 27.363284305150195 
C 4.64426149 -0.63850731 0.19161488 -64.10298487985837 38.60407925543991 12.31182851953289 
C 5.58378455 -0.20850833 1.12228021 21.394576206912983 -16.07258051865331 28.254775081377453 
C 6.94868929 -0.54241082 0.98857131 3.462518005913318 61.9340434789941 84.06306269437147 
C 7.40029313 -1.09693145 -0.16369482 20.869548009448124 5.176494260027047 16.061032993302018 
C 6.45569079 -1.44416708 -1.08717404 41.40532059728198 -16.89881319104688 -47.347013320436716 
C 5.12580262 -1.23827767 -0.96478096 -42.43742366156694 -8.065150771957569 -16.592704160269644 
N 3.24501139 -0.17344446 0.43997327 28.167433432193878 -19.183948452978317 22.432715100324877 
O 2.23124789 -0.99882539 -1.42250052 -9.190235250323493 -7.79717537439526 -24.588206918879195 
O 8.73944891 -1.15674381 -0.24094814 28.733814767015044 -10.926665025953628 -39.64720452635255 
20
Properties=species:S:1:pos:R:3:forces:R:3 energy=-322824.96258479566
H 0.78204027 1.12816089 0.21628811 12.835798964624226 15.876478920543391 -1.5642106133977143 
H -0.15904201 -0.25037048 -0.15281892 43.32207580781874 1.4488883307997655 -17.356229429900647 
H 0.8850494 0.49055294 -1.47093319 -7.4529718424976314 20.267635918609212 -46.67286931218935 
H 3.16020535 1.10166253 -0.35873436 3.538557594702234 28.718554435967 -10.36519536190727 
H 5.33501012 1.58793577 -1.01065395 11.215222719420892 -19.294124272234242 -1.7922036827335277 
H 7.82058911 0.8593804 -0.93278138 -9.164111612668016 -19.79012949958481 -7.52595912791273 
H 9.22666943 -1.1533879 0.56878808 3.5071700974211253 5.866145250100132 10.446245044617855 
H 6.67282172 -2.88313716 0.92890277 6.274945197687476 18.388319450154093 2.7810302079246774 
H 4.30417969 -2.07463042 0.90503445 -43.29289156604212 -42.20095552921144 21.475838151590903 
C 0.85955578 0.25813412 -0.44715827 -20.081419324743326 -51.237877162247635 57.77284919902241 
C 2.17300965 -0.59598922 -0.1711114 -52.93462699401815 -29.165061121192515 46.30194093136564 
C 4.68979514 -0.36354062 -0.22561866 -34.87972010423809 30.778892416283078 -3.6902667961135425 
C 5.66639311 0.55489561 -0.69919533 11.549000512677258 -19.06920603687213 -2.435947982631556 
C 7.0224617 0.09216731 -0.7179479 -28.29747649726369 78.27738370302703 14.644027832980818 
C 7.35647378 -1.05178058 -0.02111882 60.47263524958486 -4.841323127040984 -29.119418869110838 
C 6.42872288 -1.85718523 0.54917534 -51.639664164165694 -57.36463030374787 8.49133604190837 
C 5.05470453 -1.58413933 0.3938786 39.62752464026402 59.85656326962911 -17.842412501522645 
N 3.29142513 0.11408488 -0.35872853 65.69234082854815 -21.79938586667869 0.2697209261428306 
O 2.17665847 -1.74160745 0.30834577 -8.823980190244239 13.897120659496155 -21.061647461525947 
O 8.67235006 -1.48486547 -0.14643651 -1.468410502689104 -8.613289435798622 -2.7566260107866962 
20
Properties=species:S:1:pos:R:3:forces:R:3 energy=-322827.913151608
H 0.70663989 -0.77356261 -1.48908912 6.7605270580388765 -2.681543379582345 21.95783408909754 
H 0.1854829 0.47997089 -0.39294252 -9.363850123927701 -2.3175994847228147 12.367444712437091 
H 0.33552828 -1.27310166 0.25175955 -1.8230362157648516 11.248576307997178 -5.472534484298035 
H 2.87881067 -1.21757442 -1.37923484 12.152154158151912 -3.64725232347102 -3.4719369824860578 
H 4.93670581 -1.86424252 -2.18307545 -17.157619820277272 5.235295568262278 -12.129021161175832 
H 7.22546695 -1.85001063 -2.19979333 27.018854281432677 -24.159510079951804 -45.00488512736603 
H 9.16422547 -0.7921183 0.71347752 -20.50874654036195 -24.762845156046577 -33.674235773095084 
H 7.12654798 -0.58149739 1.79360429 1.7144446534271158 5.194384742156334 2.1360360526435853 
H 4.68415076 -0.195896 1.74133875 5.567648004620693 12.411174235170684 8.95679807656297 
C 0.7617825 -0.46049319 -0.39207747 -5.147023049557161 -8.397477120252962 -30.251708396155593 
C 2.13996355 -0.07371079 0.09061638 32.412983463953935 -47.97649456478685 -71.90717438574397 
C 4.57540369 -0.74527491 -0.32297605 33.49881726567908 -32.37384662613363 -27.839143618740938 
C 5.39423161 -1.39900842 -1.31224978 -54.51790086656019 14.346993890672822 -15.856181221689612 
C 6.75026524 -1.51691081 -1.33897091 1.5943079373801776 -1.1035191368133803 27.347531858367834 
C 7.4243686 -1.23130515 -0.181744 41.74579827945135 29.64019115483963 21.71944848410977 
C 6.60342832 -0.70828953 0.82663156 70.71586891685456 -2.54856777906442 62.5792238081795 
C 5.27101478 -0.44531747 0.8586035 -46.252770861670484 -2.4280480428194466 -19.94350240792443 
N 3.23121492 -0.65524131 -0.60096676 -54.3944663821828 -17.35370481689254 -8.377314604998487 
O 2.36061491 0.74250956 0.90543993 3.6658305818073047 69.55029457885422 88.56348361530843 
O 8.83871754 -1.33633867 -0.09062688 -27.68182074049527 22.123498032584635 28.29983628114632 
20
Properties=species:S:1:pos:R:3:forces:R:3 energy=-322830.0013858888
H 0.36692704 1.04890457 -0.11226759 -0.956120394906278 -12.90058866914453 16.102088489575642 
H 0.19489746 -0.66709745 -0.82319385 -5.701014926083981 11.361766484353433 -3.4461987366707088 
H 1.21222273 0.69617743 -1.53187777 -0.26588479505724416 -7.349182855398419 -17.317340428679064 
H 3.13965467 -0.22888085 -1.63815994 -0.9369432969414855 -2.380387523316544 -3.139418531181125 
H 5.0939981 -0.33886969 -2.52794542 -15.84491710756844 14.210384934468271 -27.832315661154908 
H 7.65884273 -0.40975562 -2.10625131 -12.049095636817373 2.68523246885816 -8.298438532266225 
H 8.87032589 -1.75048169 0.77121834 4.970084319559473 24.703486511919465 -35.48878981091398 
H 7.12836115 -1.88273044 1.76845674 -0.300207199428562 -4.4551071412851675 27.292612928239006 
H 4.43810203 -1.51391411 1.48829356 2.670313654271525 -4.943888346820158 13.038056159786782 
C 0.86475356 0.19826112 -0.61833086 21.55576486177041 -14.289313183326579 -2.936690565063087 
C 2.08997071 -0.38087952 0.13448776 49.2285069563333 35.907877941901184 38.94947335166829 
C 4.65894548 -0.81691657 -0.41902428 -14.897785236195006 38.85654174207127 -59.71384733503482 
C 5.4915215 -0.45036532 -1.5485159 9.677210450404587 -27.19266481550957 48.540951312049465 
C 6.85154996 -0.55434875 -1.36500626 28.102863104567184 0.4200367878244439 -0.4163180530224658 
C 7.38032317 -0.98205544 -0.13867211 43.82993924563481 -16.18315003049669 33.77703578544148 
C 6.61810434 -1.32230203 1.00665585 -38.339152603788285 6.171789439027122 -76.61139881248818 
C 5.20564559 -1.28204174 0.74557666 9.882421525794097 -5.145247875450478 52.22056350605976 
N 3.29166834 -0.51748153 -0.67331098 -48.0774518112269 -8.417964550474188 16.60859771975654 
O 2.1358787 -0.45076477 1.38027082 -5.182078291335246 -15.449178978808835 -41.46778846419314 
O 8.7759307 -1.19694561 -0.08005954 -27.36645163316553 -15.610443526213235 30.139163306448665 
20
Properties=species:S:1:pos:R:3:forces:R:3 energy=-322827.4367422423
H 0.88082638 1.27518006 -0.49187325 10.095523054427348 -2.9161521445368566 -2.126500865608284 
H 0.13589283 -0.17126881 -0.01993322 -63.44248374275156 -28.274712290633083 31.874471295368764 
H 0.75043888 -0.03382572 -1.66081543 -8.575155802583694 -11.836426932866114 -39.31142743881171 
H 3.24133198 1.02007865 -0.73833831 8.061926524532002 7.987919433016871 -6.225054148796016 
H 4.48361862 -2.01704482 -1.73387478 -2.537971282192457 5.779823407016589 12.226586959422754 
H 6.86159483 -2.65172198 -1.6415215 -1.7364902525035102 8.155778331261132 1.4643289066468819 
H 9.15313694 -0.73621419 0.3117759 -2.490806435887012 -9.380771790261958 -6.575415649388372 