20
Properties=species:S:1:pos:R:3:forces:R:3 energy=-322832.87579591176
H 0.22533381 -0.00481125 -0.72763771 0.9097073591443453 -1.4485313986647546 15.432554953557263 
H 0.5975268 0.3659467 1.05918638 -7.939208276066727 17.097805820868288 -1.9195324034277865 
H 0.51151195 -1.26942476 0.62585078 8.83021642312804 3.8078551827314464 -16.340432590826783 
H 2.91211032 -1.11212613 1.31002832 8.08834543162807 -14.9698452095517 -9.995590357371515 
H 4.81345079 0.93130665 -1.00163483 -17.68980800522119 11.72237466460902 0.3032618744444725 
H 7.17325048 0.65582408 -1.26951631 -4.78961184284307 -4.615962580428509 -3.3397831559533904 
H 9.08737291 -0.55536767 -0.24965973 35.1410643905081 42.23295372433152 9.732240847711791 
H 7.22021139 -3.01682498 0.96589461 -2.2986998688829146 9.919741685771093 -3.013537697984703 
H 4.80439367 -2.64708602 1.36358473 -5.152882191348161 -12.308946974389777 5.829653979034675 
C 0.80994301 -0.27144596 0.18723985 6.810938682369772 -21.576708833094553 21.59867261051874 
C 2.28457035 -0.03702942 -0.20683338 -25.176012482548362 -20.910952137109433 -10.145805424264172 
C 4.60007651 -0.92948283 0.15670871 12.415016295361502 18.933388023305632 14.43918673375783 
C 5.25920088 0.09458231 -0.49132794 27.147805205318615 -8.028855161364794 -29.32000524241881 
C 6.59722788 -0.1295598 -0.7324982 50.916482898180384 32.37163388406076 -4.104380407810473 
C 7.38984622 -1.17291342 -0.20710562 -30.197812829589935 -3.833102498633524 -20.82820791612333 
C 6.70825683 -2.12422912 0.53954737 10.845008202867207 -17.28622329859657 13.614020114485111 
C 5.34981899 -1.93968334 0.74549422 -10.312945714954223 -22.72772603192746 6.5973699402441826 
N 3.25888218 -0.86398514 0.36697545 -77.74730746536702 10.585127219768644 32.67947065610283 
O 2.42252573 0.77600095 -1.09666308 30.62789115003656 16.896715473615533 -17.187515554681823 
O 8.68726804 -1.32921822 -0.58853914 -10.42818617589996 -35.86074155530085 -4.031640958994104 
20
Properties=species:S:1:pos:R:3:forces:R:3 energy=-322833.41626441956
H 0.60746046 -1.02740777 0.71610058 -21.589911764626834 -27.020336557740865 19.917697756130472 
H 0.06278239 0.09918368 -0.58867451 8.677384249185648 -5.542846557432119 -3.952399653379505 
H 0.68136204 0.74280299 0.9351459 1.112311999873542 -2.058196387506008 3.901956011880352 
H 2.72814739 -1.28020382 1.28234627 9.142005536718246 -12.504194781346182 11.144099544690969 
H 4.94374542 1.28169432 -0.42757237 -2.5686200129615657 -40.43640993656762 2.6148101143667475 
H 7.33142335 0.98691708 -0.78774084 -23.172611699782344 -25.054166998373347 8.537222573125636 
H 8.88448459 -1.16588183 -1.41716763 6.7726425916714685 11.10651376079955 -20.57772812228181 
H 7.26512005 -3.14207348 0.16061234 -2.641054705768972 -16.22668152111551 6.133384252792535 
H 4.80064336 -3.0280545 0.88995057 2.2039515814425936 14.121287084314757 -4.893141135133088 
C 0.78960676 -0.09911128 0.22178799 19.526964978008355 7.525376889778874 3.9848413455709966 
C 2.24727348 -0.14317826 -0.25324534 -22.374538719781178 37.575069998265406 -10.878562195200363 
C 4.55424482 -0.84934263 0.33363245 63.978264965466515 -29.392039127712483 -27.282325930660193 
C 5.31482618 0.19919888 -0.27461563 -17.00355794990961 40.249575529936486 22.988197553907206 
C 6.69799889 0.08029773 -0.45049479 24.160328296473924 48.84390368720078 -22.267022697132663 
C 7.36546089 -1.10344773 -0.26201267 9.676739679449106 -35.50301136272524 -8.919418625533648 
C 6.66143971 -2.24195492 0.13070273 -22.310168795911355 19.18075622272101 18.605003344168967 
C 5.32529484 -2.10950515 0.51097458 -43.32445337901708 7.612069894849986 1.5952494792911378 
N 3.18232265 -0.76874051 0.53546131 -22.275604484046536 -9.06248200569457 14.88544321074252 
O 2.52251922 0.53091789 -1.22222243 21.210409897636577 10.170975661798224 -31.21616867048225 
O 8.68894437 -1.3572559 -0.50186197 10.799516550058444 6.4148376923699235 15.678863028957027 
20
Properties=species:S:1:pos:R:3:forces:R:3 energy=-322828.0294551182
H 0.06505962 -0.17800752 -0.49358738 12.412767978657245 10.680782660309575 8.119946376697555 
H 0.66847417 1.4850823 -0.46504162 10.183686477596183 -4.161860711399849 7.050010877743494 
H 0.71814003 0.40968529 1.08652223 6.8545875692722 8.330695236374453 -19.847046538177075 
H 2.9724124 0.60463999 1.08121193 15.948203306543915 5.003319326031107 18.717827101821836 
H 4.21194346 -2.23528837 -0.99968081 15.67452173810561 -3.2456775835202993 8.912482758232382 
H 6.62463647 -3.04559472 -0.9903043 5.989442179236123 -8.984597279357223 -11.767292380031254 
H 8.83193437 -2.14544456 -0.96757558 -5.5707074229207905 -32.722381962314294 -28.82108052365164 
H 7.8116317 0.34918983 1.11321247 16.675665386507266 24.946092454011907 11.473868076988955 
H 5.3784505 1.15820233 1.56629439 9.2818090948222 -37.13755065075169 -32.490277651410096 
C 0.87925463 0.47239065 -0.03805932 -19.541554134344043 -29.53501712875805 -5.496804683657756 
C 2.19282263 -0.19578208 -0.51434262 29.987825267024927 -27.976045472743987 -39.99102029476796 
C 4.65690737 -0.49678474 0.26250266 -68.30449944705482 -56.623757773569096 -31.03019279828881 
C 5.06136924 -1.75747037 -0.44949388 -79.62408509096144 61.63043178734089 11.2300644556395 
C 6.36936254 -2.09155481 -0.53841918 -6.130461203912791 -35.645839950318944 -6.8367658647636125 
C 7.33812117 -1.3066832 0.04804368 76.50255585608858 -20.278087745313496 -57.95513123865585 
C 6.98952298 -0.16911262 0.6722828 -38.887471512428405 37.732131995880835 42.73484536735715 
C 5.6113726 0.22823305 0.87417128 60.72145133649808 49.558051368453484 43.64141622983338 
N 3.22998986 -0.12926946 0.43288523 12.081200555831645 -8.430394326684118 -27.17673686721232 
O 2.34395249 -0.78646335 -1.61870175 -17.064581486786075 27.313057668902562 49.68058107137236 
O 8.72015729 -1.49800395 -0.29638716 -37.19035763359661 39.546646901605186 59.85130652492976 
20
Properties=species:S:1:pos:R:3:forces:R:3 energy=-322822.0209874544
H 0.18593682 -0.16252822 0.39696533 -21.297981596103185 -11.5989674541157 24.50357961407117 
H 0.64272454 -0.81610847 -1.20593132 8.416725367480545 -14.365816428144697 6.629038477113324 
H 0.74831906 0.85318847 -0.83711946 18.089000430689396 -17.24132455631108 13.8288778440883 
H 2.86871674 -0.12500585 -1.77585001 -7.152834606510816 1.2150076599678357 -7.03634310436097 
H 4.74986979 -1.50012831 -2.42273972 3.994727535636076 -7.966196377265138 -7.859352715150015 
H 7.37899932 -2.21898488 -1.99148005 -19.93051055253844 5.109085076814915 -5.346525582428586 
H 8.93230631 -2.24433196 -0.18731157 -4.493483867814637 -1.1592290095802582 -8.303581438145107 
H 6.86410427 -0.16140935 1.83185792 21.28953380696757 3.5672283759656986 13.08486288813617 
H 4.51789837 0.31272767 1.21958322 13.459081922364048 11.202578309601538 11.943589580842758 
C 0.94820459 -0.18081536 -0.35288407 -25.0716033110418 48.58621172975415 -20.803373265945453 
C 2.32992841 -0.31544205 0.25526142 -10.969291735113929 -5.249006031202478 -67.2684843591373 
C 4.67335731 -0.45114307 -0.67866533 -96.45572626300552 29.657246818952146 46.66640895912775 
C 5.3195247 -1.18234847 -1.54184022 98.81896325652582 -83.6606258625199 -97.56920392496782 
C 6.69302459 -1.61361764 -1.35307666 -8.968542448207995 23.84672369086145 40.5472367715781 
C 7.28191262 -1.21822332 -0.10042435 -30.202687739912303 26.908778071144663 -19.82756468420332 
C 6.56598868 -0.36673176 0.81799818 -1.1052907534569247 -29.671840718572025 -23.995335527699172 
C 5.26947971 -0.05401924 0.51084275 -33.32611547428071 14.204267283689124 15.414225717640754 
N 3.19540077 -0.43329964 -0.86996361 54.613614412332396 17.124429875005408 71.33003053910433 
O 2.58391022 -0.3636326 1.44837156 3.8114209466184197 -0.08815512242150829 -5.774126722708966 
O 8.54828645 -1.45014827 0.22053461 36.48100304101407 -10.420397703266225 19.83604330468615 
20
Properties=species:S:1:pos:R:3:forces:R:3 energy=-322823.66390588944
H 0.68919392 1.41245551 -0.62095261 7.422050372887816 -44.76309858761676 22.038507866536367 
H 1.11745297 0.78689705 1.08167526 -15.246358518649165 -16.07452407934861 -40.033697994233265 
H -0.01169886 -0.17586394 -0.02453935 -18.844607973192588 -23.951524183313367 -6.482102205414376 
H 2.95343601 -0.24884396 1.34483473 -4.035825721467376 5.775088423577717 28.44101183420113 
H 4.82622523 -0.74056528 2.30605593 10.292669360879279 1.1652292640757966 -12.874253955342766 
H 6.99559443 -1.69367839 2.25918544 23.999795400655238 -4.655587976519995 15.247836051673165 
H 8.96044961 -2.13872045 0.67456563 1.1416302394284226 0.9167084466031713 -3.7673582081707475 
H 7.23424087 -0.96589959 -1.96948522 8.83443557441166 4.113736535867746 -27.086600237822026 
H 4.87758768 -0.07298675 -1.92757927 -9.303650732678589 -12.828650835355628 -3.6222030396837157 
C 0.89307261 0.39531817 -0.01852092 56.44942903569487 82.11148703462383 20.160348759422682 
C 2.22789567 -0.20806044 -0.57917947 -11.301848132692353 -45.48063534542049 -44.18733029339111 
C 4.66724676 -0.43534701 0.14588808 -59.565316134028265 -9.918476414714425 120.05604701278348 
C 5.39886066 -0.73052085 1.335711 -8.155785446187412 -13.801957334689543 17.29043770659601 
C 6.71534142 -1.21866216 1.33711326 -34.419115192590155 13.396797857715102 -28.599069921495666 
C 7.33604298 -1.27568778 0.06274193 56.885215898659574 -34.460930800154614 20.587085436160127 
C 6.69444332 -0.83891546 -1.05728782 -55.2323011276958 5.635397518473185 0.5563409880200327 
C 5.29624487 -0.50907557 -1.01099407 72.28052895642891 23.132682733502936 -97.7324120330675 
N 3.26912381 -0.21499204 0.40342918 -0.6653962063869693 8.79647507106953 -87.21047958851157 
O 2.30401152 -0.70992674 -1.7588548 6.321049919977307 46.513017077651384 84.39223001539884 
O 8.60526932 -1.85660098 -0.19260381 -26.85659601599127 14.37876559397301 22.825659434698817 
20
Properties=species:S:1:pos:R:3:forces:R:3 energy=-322823.1307809719
H 0.28288029 0.82526385 -0.39332981 3.107574492797095 -32.279596383532855 2.9894299561083595 
H 0.35607827 -0.9669993 0.19987881 -7.313239433656468 -13.705806220951153 28.274835616021925 
H 0.54366311 -0.60867002 -1.45472535 -6.693477178603849 -4.523768551522455 -24.376574622522618 
H 2.6247146 -1.85953655 -0.25481846 13.70794069883494 -20.230952544534215 8.412261937061336 
H 4.4951114 -2.86173126 1.20715442 16.34359398973688 10.383771248601464 -10.259660846227538 
H 7.03511645 -3.24883556 1.03970728 -12.907100012511131 53.567791398538866 -21.40556995383554 
H 9.06460426 -0.61891866 -0.36504432 9.451399291794424 -19.553440804514654 3.0660873576625276 
H 7.32978949 0.74225722 -1.21681618 -21.0084681308724 -28.99157668790343 27.230811492756004 
H 4.78420727 0.87998549 -0.91425477 -22.500654345544817 46.395401417149415 -17.45755546668617 
C 0.74604874 -0.22413735 -0.46438721 25.721456960971654 57.46287913491761 -17.07209484893701 
C 2.2593432 0.09003974 -0.39538441 42.569088929828425 -22.069610766766303 28.927088181928944 
C 4.58851911 -0.97323344 0.05781899 -43.03974723230901 10.382111099136294 17.328787159241404 
C 5.17662573 -2.11134244 0.71079637 -14.591646559891602 17.027998907500034 -21.564716624850806 
C 6.55793618 -2.24257982 0.59316064 25.51829379852953 -38.72998973416251 6.983413981948249 
C 7.34489299 -1.26818487 -0.13251383 -1.3932247050537032 -4.88864568754562 32.24900338635293 
C 6.71118244 -0.04670657 -0.60218703 25.915795243185357 2.1470131980714906 4.5897535636576805 
C 5.31876658 0.1927798 -0.34476203 46.885383859404556 -95.97679923036735 -12.740246690514343 
N 3.14452799 -1.00027976 -0.1131376 -21.42527711380814 25.13580959160721 -6.0575237229816485 
O 2.74431915 1.20899467 -0.47024703 -20.986617006447645 16.799487634366876 -8.501690631286838 
O 8.73973713 -1.5205691 -0.10135067 -37.36107317474201 41.64792179609024 -20.615841596538942 
20
Properties=species:S:1:pos:R:3:forces:R:3 energy=-322821.69089240895
H 0.69570042 -0.69204133 -1.08250676 -7.957606289603937 -7.482462026104261 -13.577483782219886 
H 0.65520748 1.12174415 -0.58278184 -0.9747947047473335 -40.978308810061726 1.9505973573842341 
H 0.21495609 -0.17350977 0.53093457 -11.880665172828676 -11.019153138479227 30.182796777677485 
H 2.68509206 -2.02673147 -0.36375063 -24.428478009730075 -16.666331789049877 1.4717889068507224 
H 4.69142128 -3.17667303 0.31483651 -33.03137609569779 -26.181678852421552 4.9789103856089385 
H 7.06895308 -3.27514785 0.49848258 -2.05380410634959 -23.032854388699203 7.100460448347881 
H 9.01149985 -0.2534583 0.26864103 -22.31691493184517 -32.97758013810004 10.422530995328968 
H 7.44190487 0.7614089 -0.7617134 -26.605769962404153 -4.694390412805175 -4.251442376540356 
H 4.93154158 0.88792098 -1.18534578 -11.847787098492056 13.612898327775074 -3.5112457643581143 
C 0.88729502 0.0142772 -0.28037495 -4.441217619366937 56.313890875895346 -23.62835355931838 
C 2.34864119 0.12177223 -0.02552476 35.99340409906249 -22.731212345804316 -13.910769459741935 
C 4.44068455 -1.1476674 -0.51608319 103.43192926716969 -5.227923318815883 44.57461114644673 
C 5.15638087 -2.28385511 -0.02399873 14.457118719623747 0.9658547998773996 -22.650525524333972 
C 6.54501547 -2.42467015 0.09522415 23.381080225586725 60.207410956850545 15.521833048509853 
C 7.31801766 -1.22486139 0.06696913 -26.168817437350683 29.325777819273412 -46.45491540383362 
C 6.69148573 -0.07699459 -0.61901233 54.33715565100307 -33.91321547442718 47.625166620041554 
C 5.32331057 -0.02962565 -0.77287312 -27.249975546689285 -5.832988507817572 -22.129956014004144 
N 3.10746941 -1.12533888 -0.29983399 -51.16273168252782 86.14493399907184 -0.7088470611746222 
O 2.87505018 1.22152293 0.16806263 3.284228625743611 -31.62490221209099 1.6510577752048787 
O 8.58036097 -1.12820558 0.56177879 15.235023255265201 15.79223582175445 -14.656216887518296 
20
Properties=species:S:1:pos:R:3:forces:R:3 energy=-322830.7463349406
H 0.42841866 -1.03595498 0.74643453 12.952231175721744 4.394415634301737 -10.530061247830043 
H 0.60603465 -1.12838829 -1.0609975 -8.425122166311159 1.005086503381431 -5.6363746350155415 
H 0.2722609 0.51325965 -0.18454474 -1.3849026129490216 -22.788461414289614 -8.846712379706583 
H 2.6679866 -1.88449795 0.16621149 22.13946155551328 2.677891050758974 -1.9149112588093846 
H 4.70447682 -2.96277026 1.14892474 11.137029679611443 38.190553810982074 -15.62178827616557 
H 7.16208598 -3.12697887 0.90529538 -2.6736327673808162 16.642797984560065 -10.256146072645567 
H 9.00977897 -1.0618444 -1.20133558 -4.314086930787453 5.094703439162369 7.8763502740312505 
H 7.24569585 0.81313677 -1.13481992 14.029726283847557 8.327278885939345 -11.747108519997942 
H 4.79265013 0.91271802 -1.25259142 11.11833758245469 -26.805691090105004 27.281269364107718 
C 0.78923008 -0.49398357 -0.17957271 14.389368019950208 30.313483743575567 13.26402384677509 
C 2.29662015 -0.0143824 -0.17727822 -47.01270546517253 112.55363829085522 25.02658835829375 
C 4.63085157 -0.96487943 -0.01468162 -44.033359731244026 -17.83194763078685 17.735362506545425 
C 5.27498484 -2.07396273 0.65608845 -33.32214060213268 -11.514948475504553 -14.971931068772582 
C 6.62694608 -2.24006677 0.46970229 44.95692696678044 38.39328177710012 -9.010965196148288 
C 7.36202701 -1.13689464 -0.20235817 -28.11025669879242 -41.66180776054532 15.663809030771086 
C 6.68924612 -0.02779196 -0.74799361 31.938206804978687 -16.32480465525431 15.907810684235313 
C 5.33216162 0.06922309 -0.67856672 -60.1780476560959 7.820087808656681 -13.628385150643007 
N 3.17360065 -0.99357945 0.0115897 37.71568584378625 -30.35124858644502 -2.3014414871425366 
O 2.51618748 1.26257353 -0.17789346 -0.4870475351649347 -90.7792068422801 -12.937217495451385 
O 8.69463196 -1.27689621 -0.29773208 29.564327067565603 -7.355106031525931 -5.352168904789113 
20
Properties=species:S:1:pos:R:3:forces:R:3 energy=-322823.169796723
H 0.55349372 -0.89575836 -1.45912145 -3.6246482026817 11.227028753760333 30.730470599668287 
H 0.95321297 0.81878478 -1.30533774 0.7028847529525734 -18.986846021905112 11.453924938628091 
H 0.14132373 0.18803072 -0.00277179 -82.81799209923152 12.14543766774426 77.67973938213463 
H 3.29996596 1.06104558 -0.86523234 -9.882133371279787 -4.941526191295432 -5.7331388182349965 
H 5.60291956 1.40848519 -1.28459889 -30.925408907331548 74.16194669977851 -43.308902521812634 
H 7.8876245 0.77964044 -1.12322516 -11.206064623478392 -8.484512827606526 6.4588933158913155 
H 8.95534146 -2.0643986 0.50824101 -4.299565366251413 10.139324912244781 -23.471135033324803 
H 6.56833442 -2.77115623 1.03950986 15.892160218062957 -25.645093643037033 7.080958435416334 
H 4.22108849 -2.25635655 0.86356513 4.081537936990798 8.0914617693384 -2.9778468561256677 
C 0.82920279 -0.12738119 -0.6519701 81.32076258764813 16.78758080523848 -134.47916587136058 
C 2.149948 -0.50349285 -0.05079585 -6.769263001688804 3.910793936140283 -6.613648891571209 
C 4.63710554 -0.34706843 -0.18854273 10.166933197850536 60.36800195790051 -32.73669837980928 
C 5.7041447 0.59241492 -0.69308111 27.530939242174448 -139.6693729659699 61.80059947916278 
C 7.08239487 0.15520971 -0.65556548 -38.857761951928175 26.097036131939923 -0.04834236660466806 
C 7.41845195 -1.05724437 -0.05592115 -21.535449375600923 -26.73612015512502 -9.721770047870763 
C 6.36024144 -1.88231794 0.47980531 1.7427715465870812 28.086582967419112 -2.172821407328586 
C 4.97665636 -1.5667353 0.44846311 25.862472428185182 21.290240556311314 -13.438477095859211 
N 3.29347026 0.10203539 -0.50698504 40.580359125050315 1.2992721035356163 8.843585369606833 
O 2.20133037 -1.41962916 0.73674347 -0.9767655393266982 -35.22712416714035 29.431632506635708 
O 8.7058667 -1.49439904 -0.27735252 3.014230217475888 -13.914113475093204 41.22214207693735 
20
Properties=species:S:1:pos:R:3:forces:R:3 energy=-322829.3820041697
H 0.94473603 1.51626052 0.46355472 15.134390923791905 7.989015131663883 -7.066095354418888 
H 0.09507631 0.01137164 0.2641684 3.826368220910172 -3.121855335660686 -9.22020331981188 
H 0.88332595 0.6924418 -1.20985134 -18.469702348578757 20.518138243050622 -26.46917167858902 
H 3.43163678 1.27690222 -0.76896796 -7.489455998636807 0.42884506655821075 1.1630129645397966 
H 5.10209849 -0.40283414 -2.38889416 -0.5004674719487311 8.269464180814843 -4.531300886810135 
H 7.42934313 -1.25184619 -2.0593666 18.80155674009762 0.628153124778001 -46.294127556489926 
H 8.72853152 -2.36039307 -0.53405389 20.10410763882695 -16.7063734083287 -26.199225446447343 
H 6.94114726 -1.38143757 2.09672983 -8.905551634215305 7.820872822189496 -14.663868990731677 
H 4.64320957 -0.36825832 1.91577786 -12.77079699813659 -1.0831597752651785 7.66075377791606 
C 0.94874022 0.596892 -0.14333099 23.32534900804101 -53.040735447084415 25.29944103782052 
C 2.24418346 -0.37985749 -0.15695478 -17.490587697758848 75.43845222504144 -3.1643871791372638 
C 4.6468309 -0.31048272 -0.30359429 50.521487093395926 4.604410311793028 3.699528058487091 
C 5.54219144 -0.46241976 -1.38595823 -39.36677563615938 -0.38457718106948546 -15.90843561192684 
C 6.83414346 -0.87313721 -1.27575994 30.40914867068487 -33.02163931908457 44.20701017947963 
C 7.33500025 -1.27558386 -0.01570867 -20.700561395388597 11.952359913303034 26.14267956984265 
C 6.52396546 -1.06438139 1.09927667 -34.60344988845517 6.162318286328334 28.369243572821887 
C 5.17482233 -0.57141347 0.99282678 36.598068480550445 -5.9982563870751235 -19.68128772900625 
N 3.40933513 0.26799737 -0.60298129 -27.372288244356646 -4.447764537364935 20.04723566143445 
O 2.22129704 -1.55546858 0.05664269 -6.335188464315311 -39.285038177241795 13.63710212115619 
O 8.51460771 -1.8935241 0.26415424 -4.715653369990848 13.27736789101191 2.972097995691998 
20
Properties=species:S:1:pos:R:3:forces:R:3 energy=-322831.36217548826
H 0.85378468 -1.67994938 -0.54781366 -2.0835539847654143 15.38723050151606 -5.496453680627977 
H 0.87664947 -0.19288776 -1.47707418 -12.72263369050995 23.560296917814835 -61.98057391103964 
H -0.18865103 -0.36539551 0.06564727 42.85400022357755 11.018798577986308 -16.814783540046314 
H 2.97256325 -0.61965587 -1.6974853 2.268774488952201 -5.111582415938948 -6.430528476457861 
H 4.79355143 -1.35177754 -2.42300724 10.095666538773981 -0.12909322241152366 -7.200786837991168 
H 7.23839234 -1.42996404 -2.30807246 30.13885499297656 -9.654105913133623 -24.305107559689194 
H 9.17200352 -1.09627789 0.79707516 -26.084147442984982 -4.190156773212604 -21.06780898768381 
H 6.98409254 -0.76700133 2.02744208 3.4843608295907527 2.408587533624529 -37.41457386289917 
H 4.58183943 -0.2272731 1.68880368 -3.6853136216021065 3.9693177622506215 7.728610015662742 
C 0.81649378 -0.54353935 -0.50423239 -0.5555227714979138 -49.59528970677826 81.0381565300135 
C 2.21901093 -0.20449214 0.1425727 -32.25387355339111 9.90248561790171 9.629546373438547 
C 4.61407164 -0.68628649 -0.40835123 -43.692393490803475 2.2734240932757204 -34.5928889662146 
C 5.36273434 -1.14360896 -1.50598039 14.007730489255117 21.593240364304496 12.053740497856705 
C 6.75788453 -1.15743299 -1.40436544 -37.31738989902924 -17.80759798141701 -25.460662895667244 
C 7.39571324 -1.03731968 -0.19040399 46.67551843640734 -11.707696571694836 48.38695229019726 
C 6.63615989 -0.74734496 0.92754211 -71.51492612832436 14.604551850341199 56.422129063561215 
C 5.17951705 -0.50595749 0.82882879 74.2200946206171 -7.952008028443178 10.806943347272984 
N 3.24307299 -0.44266254 -0.73611872 8.64060126614274 -7.4660561919252535 12.666992595363771 
O 2.40588254 0.18916639 1.28539922 -5.516901978754671 -4.525390754714134 6.411516207618539 
O 8.73461887 -1.40651448 -0.04933902 3.0410546753698755 13.421046712295986 -4.380418202668271 
20
Properties=species:S:1:pos:R:3:forces:R:3 energy=-322822.7429516098
H 0.63766612 0.65069275 1.29442331 27.262481215446194 -21.415286571490963 -25.042359778212855 
H 0.38571288 -0.93854621 0.51831286 1.1583965632055806 -12.775205880787658 -3.1147961429705795 
H 0.18733589 0.59313718 -0.40445496 26.53440606600178 -22.783681369650978 10.330419973896172 
H 3.16325643 0.28054736 1.60487768 -4.9985926433395615 -4.01103138920508 -8.071313483936484 
H 4.51394578 -2.31468582 1.61535004 42.65514989228173 21.506965954062817 -61.27724684683671 
H 6.90862923 -3.06158099 0.67623789 5.992951023712862 -5.137874440183034 -1.0505971293269396 
H 8.88803504 -2.32999484 -0.7750677 -4.2521218520000295 -26.688292434854553 -1.3026564368024676 
H 7.39572722 0.86940709 -1.0934551 14.73442890046449 4.735207559048443 -13.756532087859384 
H 5.07839973 1.43079202 -0.66287752 6.144816753502315 -40.7440866227684 4.680854265558817 
C 0.88346189 0.01874401 0.33018447 -45.703465349919625 64.95057300347924 10.180149173414327 
C 2.2952817 -0.18681035 -0.22256073 -19.603835827350895 -49.62495776354188 -26.55418911852136 
C 4.64700602 -0.49602241 0.37108926 -1.2426977672258044 -6.42108222600105 -30.004219242993468 
C 5.1735456 -1.73838912 0.71666814 -0.1936813373539147 -43.228534686203815 54.45759119395375 
C 6.50060292 -2.12337468 0.29436761 -52.51276759924516 9.263688563409882 18.650497368619824 
C 7.27557427 -1.21604982 -0.44569435 36.67459781343158 -17.46384743315916 20.670800844583354 
C 6.78589678 0.05019 -0.74672598 -45.061007665857105 3.5778746773216166 6.233424859563605 
C 5.4278776 0.34040736 -0.44306065 13.28795134385236 53.678017022278745 2.005684674101673 
N 3.29663467 -0.19545702 0.69770095 14.903046724178543 28.784891636953052 33.18784281114785 
O 2.45655108 -0.6891713 -1.35025323 -5.0972541402334945 27.09592909199523 18.390289098912408 
O 8.63921571 -1.4343941 -0.56559556 -10.682800927730801 36.700732123476485 -8.61364399629154 
20
Properties=species:S:1:pos:R:3:forces:R:3 energy=-322818.4262206572
H 0.73075093 -0.41611188 -1.68397821 3.4122451226448676 -22.456987671326694 -44.825731283653376 
H 0.09662141 0.8020426 -0.71778192 17.563841792909418 24.230215845673342 11.370782281770346 
H 0.24628671 -0.75436067 -0.08958085 -10.757447176790023 -21.811238148038946 13.9208157356483 
H 2.79267637 -1.70794036 -1.01980119 5.115744647812336 -5.050269538727125 0.963410822700462 
H 4.41896632 -2.97633789 -0.30090895 -0.1803977699904714 -30.08100471322066 5.533604268195314 
H 6.81228455 -3.32512709 0.21391471 47.31198179507956 -114.29703476513383 8.229115433884964 
H 9.03992008 -0.45387994 -0.25590326 12.501424703381444 -12.589053321258284 -3.6122611160294484 
H 7.51940942 0.90110926 0.16456378 -23.783022570061878 -15.47255032581527 -5.710317692194159 
H 4.94768511 1.04983265 -0.08608742 -14.340326018928076 49.15307332209916 4.6647555590308665 
C 0.78948865 -0.04554352 -0.69776314 18.210869631285345 -15.836076811666418 22.130227567023802 
C 2.24286575 0.02621946 -0.16272758 0.2976493834311555 111.58294652692895 41.26218251039513 
C 4.52771131 -0.95104018 -0.20315365 19.661584126496795 0.5920662186894181 -0.16325198347841766 
C 5.12662518 -2.1765868 -0.14818211 54.92838705167573 -37.12245159136598 18.760305583351318 
C 6.5420026 -2.38469342 0.09279185 -78.96486464058492 120.75586997579384 -39.73234529167373 
C 7.39278239 -1.25154012 -0.01200584 37.23335787638657 -47.49260724271096 -6.723288719714094 
C 6.82289939 0.00071359 0.06957806 -24.98145008015686 29.667036957512458 -5.045565386635465 
C 5.40057021 0.10760954 -0.04711864 35.349907635763195 20.499946562375513 5.766220853791623 
N 3.16206247 -0.93770144 -0.45793927 -38.96953388631276 1.0514758227224326 -19.099615231789837 
O 2.57390151 1.05607765 0.51998914 -12.653609419032419 -55.6569756616333 -32.75503473065207 
O 8.78291127 -1.406443 -0.28875104 -46.95634101918797 20.333619744923393 25.065992005849534 
20
Properties=species:S:1:pos:R:3:forces:R:3 energy=-322828.5254231189
H 0.87559899 0.11982017 -1.61120789 6.105838815702246 -19.64701512911889 -12.664952983163706 
H 0.12623067 0.52496007 -0.22962109 -10.377083217898926 12.27401268635844 31.403656464510043 
H 0.66025077 -1.24577331 -0.29390033 -3.6246102564082103 25.329355745361816 -14.542260670765973 
H 2.95903252 -0.92229675 -1.65745342 -1.65232541790364 2.103103430538823 23.972024657566106 
H 4.68141245 -2.4431039 -1.90909209 -1.9400648948487846 -10.72174803418366 -10.827051314759316 
H 7.09142489 -2.75800472 -1.47767571 30.129658950760575 -36.83974592476344 -24.01629965798111 
H 8.90210796 -0.53428983 0.39289457 19.253286967033183 -27.580096267838098 -10.365864164977525 
H 7.32028641 0.44121176 1.37621509 -17.518275433374722 -0.36719778781126156 -14.34617330250861 
H 4.83447034 0.79277308 0.91069827 -31.99356804635788 24.123503809694384 24.22097948554177 
C 0.90205305 -0.1543886 -0.54092237 21.275268379777582 -16.636278340446136 -8.752306794548714 
C 2.33961504 0.0516128 0.03419046 -57.95422882883942 -6.100560726224056 5.522673369788225 
C 4.557598 -0.95489556 -0.40657853 14.418612738600203 68.99266816081973 49.895014277040886 
C 5.23664886 -1.86376149 -1.18007214 -0.6889857444659709 -10.849921059463064 19.641827162040236 
C 6.56983941 -2.07410937 -0.88642259 0.12398944862717622 32.35264177417923 -1.0858480315777055 
C 7.31893013 -1.18969013 -0.09533029 -6.617329680099698 -7.992028302943163 6.744335857469294 
C 6.68100644 -0.13813881 0.6458477 -8.048040560076911 -43.82420105759055 -3.419988534078834 
C 5.25624201 -0.1073684 0.56929442 46.19823376591864 -27.245727935700547 -49.620602242837904 
N 3.23201612 -0.65694419 -0.68176579 3.5039399208903257 -20.632383800138303 -56.67225192526772 
O 2.55046064 0.56008262 1.11417261 8.452914254179133 18.50437101269567 21.673528749903202 
O 8.67904836 -1.39343011 -0.07731786 -9.047232347035946 44.757248932394134 23.239560784428413 
20
Properties=species:S:1:pos:R:3:forces:R:3 energy=-322825.35289159964
H 0.37280052 -1.1124007 -0.32932046 1.7173036679703455 2.963201966200786 7.6785209346565075 
H 0.74202414 -0.14679477 -1.68110061 16.156026745698973 3.150405163177403 -32.16641569374498 
H 0.08920064 0.65289943 -0.31512217 3.056934005004215 7.336860988903728 12.934015778625703 
H 2.89431849 -1.55116946 -1.27251374 -18.279827496784268 -5.743443603129508 -16.62005868017144 
H 4.76868849 -1.94649728 -2.17122243 -31.31236010213622 -22.889162523383614 -53.83865664199162 
H 7.24953132 -1.9552325 -2.16264691 3.4249938847163177 -12.726219613354713 -11.003567892464432 
H 8.89872718 -1.0094869 0.85984533 10.03902698230661 11.00129704516029 26.750939360743743 
H 7.16477459 -0.20731138 1.67523789 12.52837367248532 12.10639688142872 35.26169203646831 
H 4.65353498 -0.00967926 1.68679544 -6.107868941333938 10.61750132016048 1.8770420636878382 
C 0.80396321 -0.12445514 -0.61050732 29.765301204355794 -6.995891191000039 46.391086214361025 
C 2.30020386 -0.00987211 0.06912032 7.919550920578082 9.502244926628357 17.641022141545115 
C 4.53065122 -1.01755074 -0.29886166 30.755494981213616 53.413301446773396 14.01023850076857 
C 5.26096306 -1.49873191 -1.3827855 68.22470317719043 -0.7425635109911534 56.5778475259309 
C 6.66719646 -1.62433165 -1.30904778 4.956171081220313 23.010368850014537 -7.602960417570397 
C 7.38384582 -1.0829713 -0.22979936 -43.84960964515496 -21.991785331481285 51.02662551444701 
C 6.56991813 -0.59446014 0.88343149 17.306894531080015 12.212323903874859 -55.994257556082225 
C 5.19963274 -0.32774185 0.8063875 7.186345909286294 -65.73192353508198 -23.060734227324623 
N 3.19429295 -0.91548547 -0.55858429 -54.274110289242245 33.67385986782333 39.80059047872368 
O 2.70305204 0.70776597 1.04546049 -48.42998573597654 -40.428622649754935 -68.82298784144797 
O 8.70763569 -1.34840728 -0.00695756 -10.783358552478168 -1.7381492161476326 -40.83998041333969 
20
Properties=species:S:1:pos:R:3:forces:R:3 energy=-322827.8782158652
H 0.53995898 -1.21271086 0.45286954 9.663936369609516 -15.812130341452402 8.198147717254331 
H -0.02957069 -0.02218432 -0.65803102 22.09149746582246 3.8507024546064064 -7.470932288068664 
H 0.72856937 0.47625386 0.80194016 -12.289774619709169 27.067737382434572 37.134315730936706 
H 2.82753573 -1.4053456 0.84200664 15.25341533969718 21.723250226385 -10.521294472832905 
H 4.95916755 -0.25982338 -2.14815394 -13.37615389911573 -8.606545671506897 9.4502905491159 
H 7.31073882 -0.66303486 -2.13848132 -17.311880908580754 1.6175180127242834 44.47027312420296 
H 9.10908535 -1.07117767 0.86597357 -17.124523554868087 -19.768299719938888 -36.59126661102744 