20
Properties=species:S:1:pos:R:3:forces:R:3 energy=-322831.2301309738
H 0.30957758 -0.39698567 -0.71975391 -25.946159376903292 -4.332429210735475 -12.743563431981542 
H 0.75366925 1.36996872 -0.41730686 -2.9820992103985926 -11.231921451398396 -3.1816147873015295 
H 0.7324284 0.16952645 0.87736401 -11.921468089219386 -4.721956008853256 50.58975481104575 
H 2.85979404 -0.00472243 1.36423805 -4.5730370443644786 11.855906415197778 27.16848236690729 
H 5.33939681 1.09469803 1.48861026 -2.3733639052578335 6.986110539008102 9.006987952358163 
H 7.7700364 0.39581102 1.48568319 -20.419805218586582 -1.6134862211660166 -34.021561571808284 
H 9.38866677 -1.16923246 0.0318142 -35.31991703567491 -8.41184452805295 -8.963909445379127 
H 6.55557384 -2.95180551 -1.05778332 8.75547649420614 -0.9674283844061704 -6.513634372863163 
H 4.11092755 -2.40238972 -0.93880182 17.16676487218826 17.7875848796144 18.990814964947912 
C 0.90543121 0.29353584 -0.14950528 31.603279951128215 20.21612622398921 -31.702452536893208 
C 2.30208344 -0.16656723 -0.54092064 -1.5335547677023262 -9.389538565259096 0.7200246103593942 
C 4.5501953 -0.62944362 0.38408545 46.631233949423965 22.09885192795316 -9.493482894915404 
C 5.64051012 0.2148818 0.92324316 -37.688886288134235 -27.30753648610983 -16.561847910817388 
C 7.00649003 -0.04254805 0.73025269 19.561774754829802 -11.700572158847168 32.57390056579169 
C 7.37369891 -1.16998693 -0.04980401 -43.51485473535624 -33.78816590178439 -14.062196435744166 
C 6.30364852 -2.01252167 -0.55816643 -36.74162041898254 21.59234151195121 8.3493387148683 
C 4.8637371 -1.74006776 -0.40076935 72.85908630175604 -20.241240727934073 -12.835470492194332 
N 3.2139589 -0.27372822 0.47291152 -12.659843280274128 17.42044163957128 19.17968424049493 
O 2.56016891 -0.53464017 -1.66768733 2.4870900727271277 -0.7174205473411724 -31.76576470838951 
O 8.598931 -1.65269184 -0.37328359 36.609899417131864 16.466175868781804 15.266509175693175 
20
Properties=species:S:1:pos:R:3:forces:R:3 energy=-322828.57803850254
H 0.61478339 -1.01682188 0.9119513 12.764004615181955 -12.034936933521578 6.3713417763825015 
H 0.20617381 -0.39667852 -0.63767825 -18.056214850394404 3.7773511221300167 -29.982085893159624 
H 0.54061046 0.72159427 0.74954751 -0.7483443885930803 -7.823117581430615 -14.425834388773687 
H 2.77904604 -0.52636501 1.5747784 10.145737832464519 -13.37982757271794 -21.716990277080267 
H 4.91875434 1.16801458 0.1009279 -9.920970196375317 45.57264201460119 -1.2574304079081304 
H 7.35587653 1.08766419 -0.35764344 -11.409387871761798 -32.064222821774415 -13.297062006952997 
H 8.98870654 -2.09410369 -0.53625462 1.4682160280374696 -17.422042497984123 3.42698606407452 
H 7.08112499 -3.26346397 0.10095905 -15.998530737580507 11.081778719589579 1.7221856932189885 
H 4.72813648 -2.97042555 0.92641673 -10.830202041279998 -1.8582349418895692 1.8761633702923455 
C 0.84466239 -0.21859652 0.19652886 32.312983175098445 41.74422706656467 23.359908576621635 
C 2.37048453 -0.03580472 -0.32826789 -66.7726949512172 -34.06701527834356 -5.502797823227015 
C 4.59612759 -0.82485871 0.49424965 21.45872912553129 3.457175882098614 -21.182133994781616 
C 5.44381904 0.25548697 0.08299677 -61.967406554138755 -25.885133468384737 14.306953457215045 
C 6.72270473 0.13184714 -0.32444509 49.80348549374194 9.620402507348604 5.456619580032299 
C 7.26692285 -1.18647647 -0.36994316 50.616254353972984 33.159007200758914 -9.61867239444169 
C 6.54345652 -2.27493066 0.07363393 -1.856053031163919 -11.688224204289451 14.465825017747509 
C 5.23048012 -2.06686587 0.56899269 3.428979429253769 -25.76156380040804 -8.992214993760253 
N 3.16990924 -0.67218652 0.60676304 24.399929368034407 19.271603158918182 30.03013061868161 
O 2.584021 0.35145841 -1.47107636 16.72577581229234 -1.8643371769951107 24.77772958182286 
O 8.59717533 -1.24976543 -0.77390354 -25.564292982746217 16.164469791550406 0.1813796298170141 
20
Properties=species:S:1:pos:R:3:forces:R:3 energy=-322828.68243518105
H 1.28067935 1.49416552 0.20319573 -12.639380752294876 -8.034665684492886 -11.73893465552408 
H 0.36081974 0.00197114 0.68112188 0.5513510530561541 6.148780953260928 -13.555523562258843 
H 0.27814363 0.49287292 -1.16944353 30.589329435423824 4.256152457737249 51.56935920595789 
H 3.13094675 1.02059381 0.72948839 16.15875294828499 -41.61626393161051 -26.021775627578595 
H 5.43124626 0.4644463 2.0459396 -20.527016485226135 15.36178159603607 -5.923186799902284 
H 7.51323415 -0.23720936 2.00828431 -3.9671322940618317 -4.912689395085449 -26.669686902634197 
H 8.8988153 -1.78326634 0.92983532 -7.8184134293389524 -15.390776106445246 -36.52431278309718 
H 6.99970105 -1.88032489 -2.00686172 -5.662467441323808 -6.066613041303448 6.954629361864316 
H 4.45410393 -1.10729171 -1.78501269 -18.733789438929435 -21.242620354723993 -41.38305443549093 
C 0.94096575 0.4826693 -0.15910377 -8.799345943823225 -17.869325895995125 -26.272056203484297 
C 2.19414054 -0.43063533 -0.42498628 -10.276316888647367 20.832920368962316 -0.5162329627626018 
C 4.68891653 -0.27228711 0.03625533 21.190772701105725 4.428295727422691 35.163026982111234 
C 5.64152398 0.08249138 1.03699964 -24.600177782344108 -5.106062418967262 12.310666414907274 
C 6.94810394 -0.39201988 1.02942379 0.6234157696970373 29.048111892118705 65.19853767088104 
C 7.36485689 -1.18734239 0.03341767 10.846010221651543 -65.10494911642424 -70.91008624532151 
C 6.54739194 -1.4340852 -1.10240052 -39.35433400173899 18.804088468032006 3.625888571496391 
C 5.1784451 -1.05897962 -1.02398367 37.608157962927265 22.74589399618164 7.971036898777152 
N 3.33721853 0.13756083 0.14014997 -8.932972560095706 34.363685173590255 20.930564431398317 
O 2.15366077 -1.46423572 -1.07944868 4.211303519935715 3.7698768920736176 3.2922234312394454 
O 8.44499021 -2.0145284 0.04510843 39.53225221992112 25.58437841963267 52.49891720942147 
20
Properties=species:S:1:pos:R:3:forces:R:3 energy=-322817.16027092136
H 0.6056829 1.3819602 -0.05976524 15.533851344816629 26.5146230134822 -1.6061649620246221 
H 0.29947912 0.0186024 0.79226672 -9.03692519049934 -29.174253605945363 47.974294866745495 
H 0.14119452 0.06156859 -0.88938205 -26.16167760882941 -21.33743030485873 -38.54541668826714 
H 2.71691596 -0.65527406 1.46313918 20.10951261115712 15.607285684766275 -52.195216581189776 
H 5.11674616 0.28541707 1.98727334 -4.142530642520051 24.881095230808455 27.63208384833986 
H 7.41871772 0.21261918 1.83470509 5.484577682846788 -24.650174369308715 -36.01983842183216 
H 9.19362827 -1.06518982 0.580605 -10.689695291295438 -22.619703663692068 -31.60834340699698 
H 6.65349656 -2.80151049 -1.45934377 11.834580609496639 23.52565671340304 0.786838511406158 
H 4.52073882 -2.18774051 -1.33301995 -13.951427705964967 7.521603607208754 -5.4107923398673625 
C 0.78088633 0.31186757 -0.09377307 31.61386577561075 16.397349629419047 -9.410985324706983 
C 2.20442911 -0.09708845 -0.50866395 -12.870466442920089 6.974439688267965 -29.636109558797408 
C 4.58699439 -0.77750208 0.25875771 -49.37841845303804 53.39274642475252 35.420702338063215 
C 5.53871433 -0.19858302 1.14119587 -47.14619571202466 -12.820830345553635 -22.795115056181803 
C 6.88002438 -0.34813701 0.97264729 55.88498888992691 -2.5641909713527045 6.411454544924118 
C 7.43975853 -1.21350878 -0.10137576 -12.845712428573377 16.269456457906628 48.63960925148026 
C 6.48428887 -1.85308977 -0.87949683 6.234259677580376 -16.659206190381166 -2.7339056795348156 
C 5.14097433 -1.5308731 -0.7134494 -26.542623805854365 -57.46153678549292 -48.47601456571939 
N 3.09097138 -0.43805018 0.45487946 54.39647160557251 -39.687969496469776 71.2889370965572 
O 2.50898275 -0.06638773 -1.70266983 -0.5634250829521172 1.7459519186339258 5.544875497242764 
O 8.74767025 -1.58229705 -0.1759526 12.236987795822037 34.14508499276416 34.739105444538296 
20
Properties=species:S:1:pos:R:3:forces:R:3 energy=-322827.391395055
H 1.07032583 1.17290453 0.53443338 -9.438020858747256 7.289633294082816 15.755187214797113 
H 0.17188506 -0.26510919 -0.20625479 -6.983999777545245 3.1153629654308297 0.44050761655102144 
H 0.93774471 1.09573387 -1.22860951 -8.944853301161082 -14.964995201471314 16.479681184680953 
H 3.23182363 1.21322186 0.56449741 -3.9135165812631594 59.93131505676148 31.804361997633638 
H 4.93025619 -0.18298554 2.21963692 -1.7930017402978553 2.941754020931852 5.0053826546521005 
H 7.10629166 -1.10736807 2.13472216 42.188608760474764 -8.89796237951739 39.271771211373014 
H 8.74318138 -1.94768237 0.91957018 -2.326901065011946 8.344533767987683 -30.262781593088274 
H 7.11895 -1.72328668 -2.10311588 -21.244950493080466 13.585955287776434 12.020503119742983 
H 4.78519886 -0.47358563 -2.23098074 -2.7107703109166414 -9.814599676857767 25.089926617853084 
C 0.99481458 0.45717161 -0.28073549 13.92969160618172 11.78722721764479 -39.399715373190425 
C 2.30741723 -0.31612804 -0.39955238 -60.75172179035334 11.049946539416013 16.788311271003153 
C 4.68553832 -0.33212434 0.03345522 -29.994196683508033 49.95386420393902 14.35798763759538 
C 5.41710905 -0.41480302 1.27097537 -6.025601420408546 -9.239896249931924 -56.335873626456284 
C 6.73700565 -0.8793123 1.18382097 -67.61089611543359 11.773277218853188 -21.237314991361732 
C 7.24546977 -1.30173975 -0.05480526 32.907689031437485 -5.620782274074467 56.52661887089893 
C 6.54456626 -1.30293442 -1.21801623 -26.42680822170105 9.964398520563085 -45.92704953660437 
C 5.23509649 -0.71679356 -1.22323342 18.311008661203275 1.2736073786251536 0.7569510777489339 
N 3.32960137 0.37128606 0.10855534 104.78312373104951 -90.11585261973529 -38.21974279604288 
O 2.35400707 -1.4500203 -0.81787623 7.103397727080182 -29.008236287786392 -20.19755389475816 
O 8.52042067 -1.74248875 -0.03838472 28.94171647035917 -23.348550782637787 17.282841336971813 
20
Properties=species:S:1:pos:R:3:forces:R:3 energy=-322827.1196402085
H 0.7481293 -1.35249223 0.02067739 -3.277505020409677 -7.122267697393919 11.071178665254477 
H 0.06858211 0.11098513 -0.69065759 19.40234230094232 -0.9163384704366481 15.468200734216529 
H 0.7387921 0.17852105 0.96809973 -9.001947027089283 14.74773144096468 43.33018919541924 
H 2.77591463 -1.35116763 0.84827954 -12.694034058509276 -10.285612539831265 13.829182600097264 
H 4.75640684 -0.38127013 -1.91334903 -11.691679686819096 20.97000721104863 -15.765076962325331 
H 7.15052311 -0.52932518 -2.13696687 -14.671002890147719 -22.11344819921513 44.06348314328952 
H 9.17937328 -1.52758382 0.68368867 22.08390583948245 0.7453335889558922 49.55802528039046 
H 7.29459858 -1.81169521 2.09678376 -11.839483979524118 5.933556804954357 1.3061036185847859 
H 4.76571813 -1.79011891 2.13183543 10.865067551690633 12.77714706984086 -23.969451425895095 
C 0.88039393 -0.26072794 0.02008037 -43.2493470313918 -13.842813613027346 -60.97495141654516 
C 2.2212314 0.05047664 -0.51071581 39.06393354236539 46.96839607594718 -42.76379007328237 
C 4.58483926 -0.83921942 0.14627801 -8.484051543219419 -1.139964160858021 -16.383481452279653 
C 5.31550869 -0.50359375 -1.00353652 -37.51153133494921 -17.78332778205729 -4.247937089526757 
C 6.62664924 -0.81573131 -1.1178932 84.81385936088881 18.598330729140034 -21.443046642190684 
C 7.37267693 -1.22924395 0.04100061 32.94054813263736 3.161577969077989 -23.18868076078413 
C 6.69492089 -1.35762381 1.27700113 40.95755575592608 -34.50538248790556 -31.417899361100144 
C 5.31885713 -1.40794744 1.19751952 -55.308672746377745 10.61451542276527 63.55798982761173 
N 3.16308863 -0.78419411 0.11725928 20.255401802871965 11.25401211167456 -3.3344054575072906 
O 2.43332945 0.96066903 -1.36826911 2.8461673580116207 -55.16240053446487 45.8684664194417 
O 8.73984207 -1.57995702 -0.13797596 -65.49952632637927 17.100945874999553 -44.564096471226975 
20
Properties=species:S:1:pos:R:3:forces:R:3 energy=-322831.3467693657
H 0.25724825 -0.42376264 0.55239829 -24.655285258019337 0.7571253934427766 -10.617930587379332 
H 0.70347254 1.23604134 -0.02992497 -9.531924841602436 32.3862396418911 -19.15956797226127 
H 1.16258597 0.51323974 1.59511484 7.822471308960245 14.011336571057674 -6.929895506475394 
H 3.26147585 1.25172654 -0.08573966 9.266797786193937 -8.239452235947732 1.1451794018207442 
H 4.19160824 -2.26976728 0.06388541 -67.19530734235475 -56.24953755352018 10.885371179649647 
H 6.48075327 -3.21151172 0.03104759 1.2320680673645379 -8.292807068116161 6.052585964143817 
H 8.8148861 -2.31606542 0.24069883 1.3125414410465013 7.386710534058559 -4.71489681616315 
H 7.81736399 0.77260293 -0.73082514 27.809039179832197 13.097555916618433 -5.5836008551599186 
H 5.50999035 1.71735746 -0.59053001 2.4426573581129314 -2.3622658060831805 -7.428360126676504 
C 1.00205748 0.36997689 0.49968421 27.717991839878152 -74.22761272605223 26.358245234610628 
C 2.19542172 -0.49259376 -0.05611259 6.504674309035438 7.675627531302927 5.8923720541866595 
C 4.70643555 -0.33301602 -0.19986398 -26.61956343281761 115.85319839690966 -15.387372800041648 
C 4.9688566 -1.62326775 0.04881784 72.0748032347052 -19.689013353124523 -17.39592241779178 
C 6.28835924 -2.14202159 -0.04038642 -25.18035377339978 -1.6478287844951258 12.240987570212043 
C 7.27252029 -1.22114841 -0.20952492 84.06908903693004 22.89291327535385 -16.766850281702705 
C 6.99865953 0.107632 -0.57669722 -1.734014258158316 13.603073800404417 14.852981359593239 
C 5.74582228 0.64387068 -0.51770387 -38.7605744305951 -41.31876751909436 14.846322974416864 
N 3.3775688 0.23096441 -0.14961043 -0.7716184982737 -17.98698543187582 1.911564871816023 
O 2.13488418 -1.71351631 -0.26098545 -8.144766797022877 24.95342794300586 7.3531470551570335 
O 8.68267146 -1.41104658 -0.12409825 -37.658726115636306 -22.602938525735958 2.445639698045003 
20
Properties=species:S:1:pos:R:3:forces:R:3 energy=-322819.9840801127
H 0.5749015 1.202899 0.00242339 4.271523070142619 3.0355014754088856 16.665187471739955 
H -0.02437853 -0.4574378 -0.09176339 -37.76796513626546 -37.170824789317855 12.478353369099784 
H 0.92517466 0.32357761 -1.35147903 -8.920024580088436 -1.0883856886173204 -57.62045696468829 
H 3.20110897 1.19881483 -0.78767885 -5.623508476660484 26.279316985752317 -11.250148706704902 
H 5.2955329 1.03614725 1.35545521 9.633306611977153 -25.804477478261607 -26.870723887939857 
H 7.70090776 0.34334728 1.29027632 4.656055190012335 7.942149112262167 15.01840458140789 
H 8.95057506 -1.05062482 0.50178013 21.872464460314376 -15.838430666443816 -22.267361841951978 
H 6.66150474 -2.88517523 -1.33278214 0.276465876255602 -1.6499383601369366 -12.07949415934566 
H 4.22992151 -2.06798321 -1.62753176 21.36341282980967 24.22438516358746 21.558787519618058 
C 0.77304377 0.17055359 -0.32518604 82.75364470596158 19.254577140331833 22.836094659908447 
C 2.22417287 -0.42591573 0.04533169 -22.74612048800153 8.22923994509485 21.777598776590445 
C 4.64850332 -0.24717999 -0.31746006 2.512329087881879 -33.18769339769598 2.190909921572646 
C 5.6430942 0.19611028 0.62049719 -92.52667424021152 80.87503617267126 28.463913596073134 
C 6.94212077 -0.17704889 0.71878386 21.59716661778962 -29.28231747791738 -41.90843837926975 
C 7.33186357 -1.163099 -0.20754318 -1.2080433329614526 -41.57510526890584 -24.17906308318835 
C 6.34127154 -1.91446272 -0.94816704 -5.476620823624444 29.53483095485374 23.228001400866653 
C 4.98500834 -1.45175197 -1.00330753 18.166605303259757 -15.85233916149879 -16.846641808282904 
N 3.28460778 0.2524915 -0.48737764 44.88809954159664 -2.1080981087868884 5.5502709830045625 
O 2.4811308 -1.40813607 0.71903763 -27.409444761029214 -18.432982214051318 4.867742034137052 
O 8.67789952 -1.51692115 -0.33971631 -30.31267027033764 22.61555566167124 38.38706095988992 
20
Properties=species:S:1:pos:R:3:forces:R:3 energy=-322819.18038075365
H 0.34264156 0.8112473 0.21992531 -11.89034384421061 17.685507032285358 15.846921145137108 
H 0.8872062 -0.7164388 1.21496518 -15.96884015021701 9.527113965616586 20.46573088189838 
H 0.12329797 -0.82012809 -0.30623299 -29.82776195634068 -38.142927680289525 -41.50758580433638 
H 2.66686373 -1.92823187 0.37680031 -2.2759119458313806 -12.270807412069619 4.361622939080467 
H 4.74483054 0.01307168 -1.92710436 -1.51290487999772 7.960988251228693 11.411018375700804 
H 7.23719244 0.08087756 -1.91801408 -20.619527128351617 1.2121794767718161 21.13609449264935 
H 9.13611603 -1.32087913 -1.31252119 -35.3914339029923 9.915074294131875 32.91444346811863 
H 7.2283271 -2.3426853 1.63429828 2.3660853356741156 -2.7511641190462908 6.696529481977667 
H 4.77353374 -2.10352634 1.79552089 -12.000986876958876 -23.46825467400274 18.57751126902577 
C 0.72405175 -0.19505747 0.26663775 80.67234259536355 10.389676637413277 6.591380358138063 
C 2.21447879 -0.02614495 -0.18877279 30.51538400660312 15.37756724580773 2.5279404219596984 
C 4.45531637 -1.13492581 -0.10603131 80.81473717245423 2.8988130691942153 20.795785197068586 
C 5.23662657 -0.38699164 -1.01688141 -0.32459479507189126 3.2063830315008013 -35.97503098776726 
C 6.65797877 -0.32503289 -1.02296352 -18.926450970183314 -12.80322801793866 -25.713400492781403 
C 7.425317 -1.08135254 -0.13149502 -14.456977606919207 1.4920913489886898 -29.074453720846744 
C 6.67293513 -1.78565843 0.87458709 17.711834631160844 -5.256444686627482 -14.639062800258916 
C 5.25734833 -1.85873834 0.87081176 6.8383264052608705 49.3809063055937 -24.014158065171046 
N 3.08936434 -1.09936552 -0.02295286 -51.8788430834336 -28.529584365631024 2.4103247614577237 
O 2.75442722 1.03798715 -0.46926039 -27.35495984140342 15.98277117587187 -10.488706924652687 
O 8.78310885 -1.06636906 -0.39546906 23.510830392858036 -21.806659692978222 17.677096003602188 
20
Properties=species:S:1:pos:R:3:forces:R:3 energy=-322808.64695304807
H 0.55823654 0.78276114 -1.16034718 2.5871532100980823 -19.076454960929684 -16.850806411798384 
H 0.18259887 -0.07791204 0.26170732 -22.699642232082038 0.3294863068889063 26.446383755537482 
H 0.63572189 -1.21640413 -0.9584583 -5.533731151047296 3.3273486364592766 -24.743851860343998 
H 2.95172178 -1.08354609 -1.62710131 7.878909275849702 13.91853777341788 48.16855251312804 
H 4.88632239 -2.57569827 -1.82864041 -39.10505425879658 -29.22596014685909 -33.79986758387174 
H 7.30463478 -2.8331986 -1.42325464 -30.067474495079537 38.28339292653745 2.90673198214307 
H 9.0609504 -0.84174166 0.63681371 23.992979301279675 35.19011943556174 46.17362323591856 
H 7.4465428 0.42839987 1.13511528 -23.37397952915999 15.043701701793921 14.787616531865357 
H 4.75643087 0.66017126 1.17371575 9.457309423890425 -29.550288132195508 -5.913076489659407 
C 0.76207182 -0.17767056 -0.63019533 73.35522552688488 17.554950506702394 43.15475882979276 
C 2.31989449 -0.06469286 0.13505545 -78.25965686420217 12.863042017347643 -16.64090541416977 
C 4.59954737 -0.96940407 -0.32651248 2.721657333945009 20.25267204282281 -17.362291347090604 
C 5.25608451 -1.80071653 -1.23991234 85.55809962283978 11.077999507914226 57.203237687670445 
C 6.66480327 -1.91643068 -1.04968271 19.365214243974865 -37.82938710901356 -23.03863170883799 
C 7.38030624 -1.03786582 -0.23673675 22.84651328362343 -47.33369536426292 1.4728514025084303 
C 6.67644005 -0.13567427 0.57084571 67.58682157654655 -9.49683165355086 4.832722366990363 
C 5.31943227 -0.1813198 0.6453637 -58.205434345161436 40.38058266751713 -14.850057124892448 
N 3.25555805 -0.7546745 -0.64657542 -33.62197426793158 13.423822719365958 12.27393323634832 
O 2.35709988 0.5596166 1.22159897 29.275597430046595 -37.092290233047 -52.76974569242177 
O 8.74329541 -1.3715878 -0.05617289 -53.75853189969734 -12.040751014112809 -51.45118028045881 
20
Properties=species:S:1:pos:R:3:forces:R:3 energy=-322829.8881501312
H 0.51433093 -0.72272845 0.68053201 -5.579987658431084 -1.899201501584702 5.272666718544274 
H 0.69327324 -1.24761142 -1.06482727 2.5355901535309866 22.66047456291452 22.53978644008094 
H 0.07606142 0.40610102 -0.67898228 3.4458109731884874 6.56847503880292 3.84676671455291 
H 2.70603401 -1.74600725 -0.06351148 16.24445342114014 14.376169831702116 10.509890431828243 
H 4.31702826 -2.82218125 0.86292953 20.501376662557647 6.22285682239676 8.717353533380631 
H 6.98734104 -3.21633069 0.93946025 9.617422539058627 -17.068240930535723 14.514562262760677 
H 9.16664841 -0.9457208 -0.64251887 15.857723974871172 40.78692322225394 -34.2401700533817 
H 7.47638866 0.69082296 -0.77963821 9.270573440406148 10.940247420220802 -6.191551146767862 
H 4.98804377 0.97446688 -1.10916773 -16.332272956205475 22.58997513005508 -12.67657284359884 
C 0.78345414 -0.35836468 -0.32116002 19.47537701919928 -26.42657224331279 -25.7453405826702 
C 2.26081905 0.14940812 -0.31475563 4.1759565661801785 -23.719320263441258 -3.6969785432370106 
C 4.62349999 -0.98768435 -0.17501556 -38.44121622126477 42.97597851970978 26.447501984784378 
C 5.12064377 -2.08202754 0.597924 18.83966309942848 -5.921591870594676 -27.50620182932239 
C 6.52451585 -2.28229195 0.68889431 -19.677612869582997 49.73694314571483 -46.078231047649965 
C 7.32927503 -1.24382554 0.04837326 35.1788968251772 -50.808243524693474 23.160164136256714 
C 6.78717632 -0.07575363 -0.44120029 -25.512265084328877 15.638421787985516 -31.91835141737527 
C 5.39511007 0.07483387 -0.72075774 40.35190477132739 -56.43315957093621 52.0885116601371 
N 3.20239993 -0.81992354 -0.01802355 -33.7770464578309 -68.43079294597544 -17.98485925473936 
O 2.60673919 1.27154108 -0.56301174 -0.04756209635603874 56.617852384757285 -11.77869879267801 
O 8.70991865 -1.51664315 -0.06531296 -56.126784916244546 -38.40719501543928 50.719751629094745 
20
Properties=species:S:1:pos:R:3:forces:R:3 energy=-322826.2715652225
H 0.47693627 -1.04243502 0.49240958 -0.4543520772694824 -3.5412968413197627 33.84167844815201 
H 0.52081809 -0.95249343 -1.16376349 14.4439904948174 23.588315497502695 20.56405441979405 
H 0.10554831 0.5556496 -0.35924246 -0.011995765706890921 4.487513258845262 12.498915506046945 
H 2.80241239 -1.86483276 -0.33875354 -15.346677793366174 -5.755865078592111 1.3338269288320577 
H 4.54699044 -2.87304288 -0.95143833 -7.718489033030446 -12.30215577725619 -8.088114196523993 
H 6.93159229 -3.0978869 -1.02330998 21.372506891415657 -48.86249380374753 -17.76261267419512 
H 9.11638303 -0.68683116 0.3947414 14.445019787485805 13.407480919523463 6.831258911823438 
H 7.48252865 0.77245817 0.35273428 14.162982923953516 42.866381381124576 14.728420345221627 
H 4.97441265 0.91310297 0.64363461 -9.104686562562298 33.859337695177224 8.437409643995503 
C 0.78951958 -0.29437309 -0.21588442 -26.233754183680762 -26.12572470051909 -85.73118799189933 
C 2.23015098 0.12833683 -0.27889936 -2.8326454406178208 -24.01139628795363 39.860571678900236 
C 4.55760211 -0.97092599 -0.0172901 -42.095468446373566 2.6793081069096005 -11.799603631907624 
C 5.15800222 -2.07089947 -0.55105932 8.291482506007167 -39.00092849852014 -12.557153549285065 
C 6.53619097 -2.24410859 -0.57905389 3.334080542540536 24.524479710016596 19.45362550374243 
C 7.40923926 -1.2760919 -0.07262633 -3.836635059531194 17.100176277140342 -7.016467557799759 
C 6.78285894 -0.00089064 0.20020761 73.57154655965951 -81.58730195592307 -2.7651022596274295 
C 5.45695859 0.01629817 0.3349999 -71.15077827224482 52.29167126511608 12.83228893432644 
N 3.09088624 -0.93801532 -0.04580407 54.60555438667901 0.24416648258969698 -0.9285844443843608 
O 2.56995691 1.28837082 -0.26160468 13.5948323441309 29.12353485396341 -9.189632853231844 
O 8.77019181 -1.52217315 0.07053681 -39.03651380230603 -2.9852013182563657 -14.543591161980201 
20
Properties=species:S:1:pos:R:3:forces:R:3 energy=-322831.54270918894
H 0.80959183 1.13207193 -0.79930332 -1.6955011622084935 -0.45208834489162014 -3.7558391425245694 
H 0.12284965 -0.10409852 0.10843946 -24.248203565128446 -15.190396065999371 28.319718942633806 
H 0.68561124 -0.45856381 -1.56058555 7.182950903630024 -5.902164564389062 6.1337222117908015 
H 2.92826723 -1.05941222 -1.63294787 2.195965076694085 5.827402104867279 32.21692811286482 
H 4.72772123 -2.67343288 -1.69636596 -10.338929425726207 -5.8892640172236534 -7.3357178574148545 
H 7.19367418 -2.71964387 -1.6500497 26.22597756925749 -30.225818365246287 -22.943104336970084 
H 8.95997698 -0.16639138 0.13956848 -6.464853252471271 -18.141080505232786 0.21165482695645974 
H 7.26261098 0.45543552 1.15303757 3.125767359293252 12.91689015107144 20.654977248538202 
H 4.89550544 0.77657202 1.09006531 -9.684628946871799 -35.12385456965953 -9.738415417901175 
C 0.90714205 0.03954736 -0.59174749 19.877670366704205 41.12796772688356 -26.060787954189014 
C 2.29201768 -0.06203551 0.05052937 -46.60001483873146 -2.705852711036602 33.49255494473225 
C 4.58094515 -0.90262716 -0.34591256 -42.680538320888346 -70.69540045977007 -39.651154496258606 
C 5.27704793 -1.9868539 -1.06045671 -8.220157741699332 41.81206433117461 15.993032085387657 
C 6.6643118 -2.05357182 -1.03869932 -21.64302350348072 47.24227093321607 43.907954412287275 
C 7.3212369 -1.10856576 -0.17858885 22.284068874676805 -39.73270340962979 -18.766691229686987 
C 6.64776263 -0.26797321 0.64342738 -24.989574140146768 7.118969929063465 -4.189579278362935 
C 5.25951343 -0.1787448 0.58154289 10.125313250758756 82.58609174954732 30.332833971413155 
N 3.14775233 -0.79578882 -0.63118751 79.16791515002761 -35.867029964310696 -68.13948770514334 
O 2.56213674 0.36319645 1.16915568 -10.448541979985022 17.570227439245084 6.038797237014545 
O 8.66654187 -1.08341994 -0.09460365 36.8283347688325 3.7237686123206477 -16.72139420352534 
20
Properties=species:S:1:pos:R:3:forces:R:3 energy=-322834.13439830043
H 0.54030984 0.02598325 1.08187373 -8.181971932358355 10.255569763616943 11.348080923655209 
H 0.54464143 -1.41087732 0.16779311 -3.7906607775564845 -37.151520808501076 -1.7883165613429397 
H 0.04778325 0.05709255 -0.61671947 -17.563928357845818 20.016851368758726 -25.809989174485963 
H 2.66964298 -1.88744558 0.4112453 12.738671920164526 14.940296920713791 -0.5836646765746175 
H 4.61787101 -2.87835297 -1.00397066 -20.227593113509343 -13.739704101387805 -3.4025154609579324 
H 6.81370032 -3.05789564 -1.23512923 27.966694087970904 -10.952960607660856 -14.040066643373466 
H 9.21269097 -0.46853977 -0.56789098 -4.3280725042104535 -17.09419025249736 5.384035473773028 
H 7.48316496 0.82493934 0.72149831 2.82011012633475 13.704697478272628 9.761988354485522 
H 4.94193837 0.90851974 1.08103135 7.33249242416824 -8.306751137802534 -3.189196927073164 
C 0.72665018 -0.36493532 0.08057178 56.353637225733586 10.480598280336384 18.142397952415504 
C 2.24160715 -0.0057302 -0.18019885 -27.526514943849776 -3.705021967395753 5.112572576512816 
C 4.50245383 -0.99194173 0.14772598 79.04406325664185 -8.955415409222695 -23.208258666262658 
C 5.16133837 -2.06977428 -0.54465126 -1.1288067706310403 27.61527246336293 8.185697782086613 
C 6.5474211 -2.12241171 -0.78592476 -36.61415177140479 20.47674478777873 37.3931377758407 
C 7.36746843 -1.10733727 -0.25719638 58.86237090420232 -15.417183155330848 -13.708933231050903 
C 6.81431425 0.03199727 0.41800697 -6.303744047623968 -55.376279961704654 -29.482397505638477 
C 5.41897549 0.01825828 0.60040292 -34.0625352464297 26.701130133504492 8.944785709361428 
N 3.12552625 -0.95949719 0.26233926 -33.007646630735294 -44.28505973494245 16.413761392703286 
O 2.61573483 1.05437808 -0.61855734 1.79984867102063 29.00732557722264 -12.535807584626136 
O 8.80481665 -1.36958188 -0.4620292 -54.18226370590283 41.78560036287877 7.062686118910059 
20
Properties=species:S:1:pos:R:3:forces:R:3 energy=-322814.88835603197
H 0.08572178 0.69267254 -0.1584421 3.1748034312101514 14.333464858352743 -20.578204822342517 
H 0.55694453 -0.6103347 0.7359072 -1.8017246399162707 -17.600666279688955 -4.35507957854561 
H 0.44168707 -0.92201646 -1.10416753 1.3989866095188856 14.495730238720432 14.093589862130507 
H 2.64277356 -1.87262824 -0.66964532 2.4480362423800788 3.1107204760335896 0.9774201125443932 
H 4.70925234 -3.14091464 -0.78521982 -14.427583474817348 -29.552207976469877 -14.470224413830206 
H 7.0816174 -3.26431534 -0.83178111 20.31361375804706 11.993180617009443 8.340328846556618 
H 9.19704721 -0.78126986 0.44496377 20.22606459018034 28.019276950638027 6.747484212347882 
H 7.29188457 0.83096381 0.38706064 -3.4461240299447766 32.96644646429399 4.229314955811749 
H 4.72293544 1.06957036 0.04487457 -5.258223418197305 9.590485428165218 17.730674955948416 
C 0.71642484 -0.19466955 -0.28286585 58.71434604878264 -8.453987422226259 18.603321849924956 
C 2.38923227 0.1326954 -0.1490318 -66.23153958751928 -23.428542712974853 5.0489710646811545 
C 4.54313508 -1.07394376 -0.25383255 11.056189887226097 4.60375692439638 -5.8965473300915585 
C 5.26200595 -2.24261679 -0.65690618 39.80369140076041 49.281351885451706 32.57123958336324 
C 6.70394607 -2.25908511 -0.56522885 -85.58249551923043 -3.371108990540079 -18.65569482226685 
C 7.36534696 -1.07761954 -0.13729206 -7.551987899884483 -107.74480903213178 -5.638429662889211 
C 6.6108672 0.06399883 0.04016242 55.53764174643487 13.290625370312327 29.695319975293696 
C 5.24064949 0.12324178 0.12014 -8.272949308870652 -30.443482933266658 -46.285417700903025 
N 3.14205364 -1.05006004 -0.31930652 -14.12346069429308 35.064331096406946 -0.08030261545126001 
O 2.77712898 1.21452459 0.27356963 -5.069625695669947 -13.064635152724135 -12.957835365987735 
O 8.59932168 -1.50637392 0.30318695 -0.9076618178390481 16.910069004420723 -9.119932663757782 
20
Properties=species:S:1:pos:R:3:forces:R:3 energy=-322817.57252520305
H 1.04299528 0.59427834 1.01663361 -20.334035968110733 -5.436330181925844 28.516471556498285 
H 0.08796353 0.39144869 -0.51221364 -38.61815969454665 2.164258593551455 -16.808354018331926 
H 1.36006411 1.77015139 -0.14787135 -16.74509283714062 6.541044626354146 -14.997502113820367 
H 2.70947244 -0.14230311 1.20028642 13.07863969928388 12.024460204575316 59.79700896502931 
H 5.00226754 -0.42316124 2.29638895 -8.8867563706275 -8.015083035730171 23.371609072887935 
H 7.2536594 -1.14431336 2.2011539 11.170300260714471 4.418255380621561 -3.2180432098515186 
H 9.25571394 -1.63765157 0.68529628 -3.437669125882881 5.15951093099837 25.521737422848712 