16
Properties=species:S:1:pos:R:3:forces:R:3 energy=-310685.2280920234
H 0.97350603 2.09494598 -0.02493387 -29.21250344962285 -5.908830064491714 9.587108209824645 
H -2.59439181 1.78636244 -0.45103646 -3.8071780789138665 16.87062148148622 -4.883527683908714 
H -3.52596224 -0.51693428 -0.66816523 2.683217758900073 4.518515364286243 8.397593330715523 
H -2.26373718 -2.50771772 -0.2368169 -41.44763187804391 -65.11464201765874 -7.4457976251660085 
H 0.11947664 -2.44958847 0.30086409 -2.421872286809019 3.7317847625953204 4.312099494713436 
H 3.18048016 -1.12801488 -0.06503968 21.062443147448178 1.7675741795967028 -2.115412253002003 
C 1.62136087 -0.14262458 0.12499032 7.590529455539422 8.587602180288275 -10.199883607270996 
C 0.14516807 -0.24861158 0.21510341 33.41625328949205 -48.657666934377104 2.4717147170375715 
C -0.55478357 0.92540112 -0.00735609 -61.5190393156912 60.73742790345824 0.644375156694793 
C -1.97190407 0.92281863 -0.30274742 38.14691796811116 -86.41056740006721 24.174909152062288 
C -2.47903581 -0.39869941 -0.2984856 -67.00204578565132 43.41697350871094 -32.75956456704989 
C -1.83626475 -1.59704429 -0.06381746 34.393648499794466 44.16437991285619 12.078448265182605 
C -0.5136202 -1.54692682 0.23678571 54.97404116196787 27.857866547244907 -6.603423556686816 
O -0.06093447 2.16002116 0.09277815 52.04586953530319 6.946338101106845 -14.118437556339895 
O 2.24418819 0.93159733 -0.11050968 -16.108129061986762 -35.12991885849158 12.604168982138646 
O 2.27098954 -1.3546803 0.16161524 -22.794520959837484 22.622541333456464 3.855629541054818 
16
Properties=species:S:1:pos:R:3:forces:R:3 energy=-310692.70918053866
H 0.97079196 1.91609179 -0.24004593 2.424127718439555 14.158934530900599 12.041636822434578 
H -2.58495358 1.78727885 -0.4428152 21.113132253903967 -9.979148948561111 9.60360416640319 
H -3.69085615 -0.26069667 -0.17809121 -21.595645209386902 -11.415830437507699 -3.611943315988973 
H -2.50001192 -2.4544834 0.1628724 8.649045497815218 2.3169389823998867 -9.085613816849602 
H 0.03694925 -2.53644132 0.15691505 -8.900208324579555 33.27579752981249 -4.5687289565023645 
H 3.29278545 -1.04248624 0.02908161 -32.23696967437255 -8.159265830959033 7.498253604981157 
C 1.61483481 -0.15588453 0.11158043 62.59692811640447 -3.362424037195153 24.292938664109506 
C 0.15821909 -0.28384062 0.11850634 26.178362110954357 -7.065323384917583 -22.101997911189656 
C -0.5669693 0.91019771 -0.06692049 -18.151534703579163 44.48255941606625 -3.3133144443733675 
C -1.95859131 0.87879338 -0.2053121 -23.83113014409933 8.224623543760634 -12.291152543765259 
C -2.61739491 -0.34223091 -0.16613551 4.152554387826531 24.977208398273355 7.226281990491975 
C -1.91894481 -1.5244203 -0.01973756 20.952974077536002 -37.23583861401596 9.404407575361775 
C -0.49576218 -1.52770894 0.0336941 -26.82275742660694 -31.40317264952305 18.40020967778784 
O -0.00901121 2.13688366 -0.147604 18.105933955234118 -20.52103876133048 -5.409351567295805 
O 2.30618364 0.9011807 0.1865308 -40.06312295768233 -18.687516330050993 -16.34117254315983 
O 2.32682744 -1.33980205 0.13924307 7.428309136371502 20.393497778668888 -11.744058588266217 
16
Properties=species:S:1:pos:R:3:forces:R:3 energy=-310679.6921402587
H 0.98138381 1.95349626 0.05090459 4.972131046685818 -10.570988675430636 -1.9749304052594217 
H -2.35486035 1.73348069 -0.6498713 -23.50083036397249 30.121105623551813 -4.18704162132332 
H -3.72101337 -0.45492793 -0.3261433 -2.919895781580812 1.375496680407794 7.749424732492818 
H -2.3437366 -2.42053285 0.50293218 1.2252602687362992 8.013408656412444 -21.00451460350321 
H 0.0651233 -2.42445873 -0.06850524 1.0027705948775203 -15.001085665023039 23.414892726908025 
H 3.29187546 -1.09706164 0.52575781 -25.507549074026752 7.913362120536141 -12.531316880322855 
C 1.61848412 -0.11445394 0.12988606 22.38864761859302 -62.12960790016994 -3.0178244410679786 
C 0.22686015 -0.30151796 -0.08151277 -58.26045288425818 -30.034234745323715 16.84822013609586 
C -0.58090152 0.85407036 -0.19491745 73.11355282595606 29.02384762186421 5.702320515056231 
C -1.94402364 0.81268366 -0.32335178 -32.32183888667407 -11.328613299534013 -6.89193263149117 
C -2.64620303 -0.36223195 -0.1287191 20.444778609826905 3.9739804106056527 -10.709424981867922 
C -1.83826097 -1.48819458 0.11777597 -96.33641132094382 -54.30619860676187 35.60377057705051 
C -0.51239901 -1.52517271 0.15876089 95.44178404804845 32.88028233540964 -44.074134187929616 
O 0.02639711 2.05239012 -0.2197549 -35.37892942005643 19.627495328871646 -6.970696051224011 
O 2.11956123 0.96589982 0.30509426 46.72240698640894 57.31650494239473 12.4200169027148 
O 2.37201694 -1.25266622 0.15426438 8.914575732379543 -6.87475482781086 9.62317021367125 
16
Properties=species:S:1:pos:R:3:forces:R:3 energy=-310676.4761950863
H 1.00627728 1.99573115 0.05624844 -7.596532081677055 -0.244781923712856 -10.245817571330123 
H -2.57010042 1.72958664 -0.07149795 -12.675009931459488 21.490701232588346 -10.475735228224485 
H -3.53822233 -0.52564604 -0.34821087 -100.00902361331634 5.128792236787516 -12.956477600889436 
H -2.46738168 -2.64065563 -0.05145318 10.987067192601701 17.336845999073752 1.9859182230767458 
H -0.0253356 -2.44005092 0.31897246 28.210318650342327 -19.02719121137185 9.00361073401759 
H 3.2733945 -1.31131423 0.30078439 22.365216980534253 21.291326768389954 0.21945278615856675 
C 1.61944682 -0.07051143 0.14203481 56.60777053421953 -66.32906151038749 -0.15585601761109077 
C 0.19869503 -0.23908042 0.11772376 -42.657912855320184 -60.248837615111746 4.973484068499929 
C -0.55668061 0.9255228 -0.09347474 -11.880160013062847 44.22166455597289 -4.150691462962403 
C -1.95599029 0.86526204 -0.21269943 2.8613126644181457 -82.58916184023684 7.2908843352869255 
C -2.53823475 -0.46822858 -0.24382237 26.508382037314213 101.12576346897772 5.177913687819766 
C -1.94111236 -1.64768308 -0.02984816 88.97507735728144 -31.935740297201864 14.998852763992387 
C -0.52917013 -1.50645814 0.21712914 -13.323043346082887 14.431378102166303 -21.625452007212957 
O 0.02604791 2.1285248 -0.17961092 -2.924229957505949 5.084999865538457 9.467856116278432 
O 2.20561707 1.00137056 0.03864234 16.348640844110996 4.324147436546375 7.745043123725821 
O 2.32140913 -1.32160341 0.20538353 -61.79787446239782 25.93915473198133 -1.2529823931625248 
16
Properties=species:S:1:pos:R:3:forces:R:3 energy=-310680.64840120135
H 1.0619041 1.94860678 -0.08874944 -20.499123602569206 4.980655914189459 -0.535807310777988 
H -2.50933264 1.86351903 -0.10600836 -25.559075370141407 12.485094761749416 3.412592568211507 
H -3.75038456 -0.54887825 0.13118777 21.846780762267166 4.865537592811516 -8.161110968507463 
H -2.36411715 -2.5790708 -0.12124269 12.586346091809013 22.03719990592202 -8.459030719137232 
H 0.10010667 -2.51782854 -0.28352204 3.5339850687467407 12.063057493819443 9.108803733235916 
H 3.16838941 -1.00520303 0.16299134 85.78247356634154 19.73895776396308 -3.2342735425156364 
C 1.6110754 -0.14654743 0.16073822 28.45603618686091 23.38971774608979 15.522450861275102 
C 0.12515336 -0.31193648 -0.08167806 74.07710950464526 72.99939620544689 14.402109667095377 
C -0.59586005 0.9578713 -0.12189104 -21.839445273273213 0.6205045790277592 -10.102183811245814 
C -2.08211883 0.87801697 -0.0908714 81.27122491342854 -13.613944221938132 -0.4707638405537223 
C -2.63762067 -0.40256761 -0.03238079 -8.212895773610263 -7.853587253221694 -6.993872923578812 
C -1.81736875 -1.58156716 -0.19941714 -68.59859255316738 -21.512687540612415 27.562874588779067 
C -0.4529484 -1.56528921 -0.14171 -5.474851578622992 -17.077886398928353 -18.435175982987435 
O 0.04835389 2.18154775 -0.23053016 -5.3491913081412275 -55.21038834057662 13.565045705262632 
O 2.29502765 0.94652383 0.3197281 -57.90842886255855 -53.64644097945124 -23.139616229162115 
O 2.3180162 -1.31889569 0.31082972 -94.11235177201492 -4.26518604246986 -4.042041795393387 
16
Properties=species:S:1:pos:R:3:forces:R:3 energy=-310687.0365330256
H 0.88743916 2.09123241 -0.15701684 4.375890737912546 -3.423949176374308 4.5149662018939205 
H -2.38325313 1.7464668 -0.39840772 -42.08024368995692 42.37172561812498 -3.520223615501538 
H -3.68317348 -0.48586193 -0.02771644 -43.88320276958265 -8.000904173476584 -2.8753266975462637 
H -2.36894769 -2.53614822 0.15106354 1.6652224076059081 -14.207544893061783 -6.220567001955873 
H 0.24795134 -2.5211269 0.06371509 -15.579013339374452 22.59868972892617 -1.8157955924546225 
H 3.24105493 -0.96337009 0.78148495 7.987894530774893 14.760048564175182 -3.2007159927193425 
C 1.6447611 -0.11891815 0.09319095 29.54967743435654 8.841201869303271 28.01120506677417 
C 0.22813093 -0.27422385 -0.11871432 -23.59292241226854 -34.6617875406612 12.495999572093481 
C -0.59064711 0.89470886 -0.12557255 -8.425872791033626 11.464157388438762 -27.943830272372388 
C -2.01636686 0.77423372 -0.31436608 62.90092875736095 -24.506301073373002 25.248981980647763 
C -2.64059986 -0.45432714 -0.1636243 61.879453021295156 -0.1347507746246095 -10.278890120318378 
C -1.82529548 -1.6269337 -0.10822884 19.551031216148065 3.1756524790794805 24.64720151594501 
C -0.38995734 -1.58694005 -0.03469898 -29.56058580216374 20.16307021872451 -14.303586911263892 
O -0.10229077 2.17543028 -0.0737347 -7.693042499192548 -28.92622727584915 -5.5341224719926565 
O 2.24352323 0.94826022 0.0247507 4.035352578869802 36.718464891406576 -15.829388780963878 
O 2.31042579 -1.15978821 0.60253677 -21.13056619493033 -46.23154229329516 -3.3959068802655143 
16
Properties=species:S:1:pos:R:3:forces:R:3 energy=-310682.5101722979
H 0.97234073 1.97590441 -0.01865028 3.5222359538175323 -1.1076315642028125 -4.021750025644838 
H -2.41181604 1.76824418 -0.40044938 -11.866084317240308 6.736693240824286 -3.1407241201533758 
H -3.73582142 -0.4274036 -0.16968008 21.11742729773457 13.80613972552072 5.094351250311543 
H -2.27218177 -2.65677698 0.27102071 -13.749389887696019 44.22855536207439 -13.309309166721755 
H 0.10036772 -2.39047189 0.07679109 -16.044426755366143 9.530693959356118 4.527869120701421 
H 3.32836078 -0.96710772 0.43794389 70.47268073662826 33.22393327469957 8.301004649010958 
C 1.63611088 -0.18534064 0.0474559 19.274663763039328 -25.958718407607293 19.73476707238457 
C 0.16271951 -0.29748708 0.10850019 29.814857851712134 21.92442713857416 -23.45729531589053 
C -0.56095016 0.92748394 -0.09586004 29.690627681412504 -6.114564086962755 13.141006771406085 
C -1.91403253 0.81228945 -0.25637303 -31.04398745452332 34.761395322750275 4.1812666728266255 
C -2.6060315 -0.35346693 -0.06637247 -73.02906544803155 -24.163099560259706 -16.122254562293257 
C -1.96125413 -1.55763951 0.06975735 58.7188794426436 -63.25505879723923 17.882961652209392 
C -0.55004345 -1.4687364 0.07894774 7.686576217025714 -58.2577634421246 8.670287110222052 
O -0.0153989 2.13576304 -0.08200246 -3.324304633832785 9.848038644549407 -2.8972157682445134 
O 2.129552 0.92947675 -0.1111562 27.35573181090473 4.593066747661738 1.5890832098490824 
O 2.48774584 -1.30183809 0.26631744 -118.59642344404931 0.20389244238574916 -20.174049735794508 
16
Properties=species:S:1:pos:R:3:forces:R:3 energy=-310684.16220763855
H 0.94150768 2.15103607 0.09201202 16.414195403206325 -11.532372929962548 1.1441216494472224 
H -2.43676467 1.76511849 -0.418015 -4.086610879427935 -14.905251165504078 -1.3108575751604012 
H -3.64364933 -0.44076332 -0.57919089 -18.731108297543184 -2.966452301689377 2.507876329852087 
H -2.39270323 -2.63119247 0.24797356 25.303625800293794 41.78439675451652 -25.744932660230187 
H 0.20601821 -2.3148292 0.40318573 -15.645239073182127 12.048226429990251 -1.8689820380344437 
H 3.2623909 -1.02142163 0.2390184 -51.39370472015362 -17.72500317388277 -19.192885986206157 
C 1.60318426 -0.20542974 0.08757632 20.717124943766798 24.160207342727173 10.753624089735947 
C 0.17416223 -0.17606906 0.17773121 -6.8275283188109945 -63.18753103192246 -6.006552391116781 
C -0.58053282 0.97475577 -0.00605187 36.26539231504632 43.85850093136199 -4.431390720354186 
C -1.92320711 0.78441333 -0.24735005 -47.0667516310111 41.24890368631587 -6.755752942505469 
C -2.61039679 -0.4401893 -0.26793486 34.43253157191081 8.676492511758642 -6.688755239196491 
C -1.85762915 -1.61063981 -0.04990684 -4.140890652012674 -34.61075217445982 46.440761443822005 
C -0.47328027 -1.43313924 0.22851327 -11.241862189231616 -29.06478572185423 -8.933489578072 
O -0.01993682 2.2427764 -0.05551993 -40.97966538933898 -26.77443403313902 -0.12895803881221704 
O 2.24278084 0.83673903 0.10372101 20.40472038905343 44.080228122287835 1.5904243734527292 
O 2.28743128 -1.3415246 0.01089629 46.575771913255814 -15.090373246544 18.625750469199392 
16
Properties=species:S:1:pos:R:3:forces:R:3 energy=-310675.5521540933
H 0.89641792 2.25656336 -0.30010057 -26.918514847757876 -18.898049370297418 11.883831315022963 
H -2.21236219 1.83297115 -0.61375215 -43.77998771986997 9.083320438945577 5.26123896111868 
H -3.6284464 -0.46138745 -0.13911887 -71.19338007916315 -7.824200236046113 -7.8604495996180725 
H -2.37639523 -2.57650229 -0.38915773 -7.530994124076377 -21.994950287854525 9.651513708325869 
H 0.08291042 -2.46251515 0.22504847 1.0386903001985397 2.407692238734384 -8.887322007266706 
H 3.38737628 -1.15923697 0.28932678 -32.58567458296288 10.125780464251095 3.2171004821195117 
C 1.69871679 -0.10802694 0.17009181 -13.962918311906027 10.78486928849147 19.073218855293653 
C 0.15924597 -0.31683528 0.11050479 44.75352782595005 37.860710571958165 -15.033711159476745 
C -0.57474115 0.89913124 -0.12795116 -2.6996532386052436 10.001992605201833 9.915611471065963 
C -1.98668431 0.83901096 -0.246663 37.38700945267213 -62.09216678644619 4.509549371353285 
C -2.59976087 -0.47755835 -0.15089528 46.172800276112255 77.49127921484867 -17.97074798428542 
C -1.87282272 -1.66043829 -0.13753408 -8.010122746292456 22.301269208957002 1.0529984169462017 
C -0.51762787 -1.55299426 0.03317562 47.30702624892603 -14.590930323979489 13.183831512681161 
O -0.11671291 2.19554192 -0.19016674 27.475471276901068 -18.187570619362745 -9.543451022174894 
O 2.24942559 1.01514031 0.1595417 -14.689584705947142 -33.89534752289778 -9.799036961442859 
O 2.38366171 -1.26402523 0.35129944 17.236303789999994 -2.5736953270407956 -8.654176545483635 
16
Properties=species:S:1:pos:R:3:forces:R:3 energy=-310680.82921415195
H 1.16304137 1.90199028 -0.06696633 -33.79363016516688 -3.0832295867114414 6.333048057326291 
H -2.5010988 1.8168629 0.09281753 -12.874082011291017 24.504192683552237 4.094759841659821 
H -3.74990416 -0.13860918 -0.17427238 17.791802845076976 -18.02207150500112 9.808466610405016 
H -2.50026292 -2.51242006 -0.17541776 6.008720071989873 16.404854690822656 12.059932855361787 
H 0.1347863 -2.43614454 0.00656513 -18.7294884659936 -0.40204195344306093 -0.3953977981192462 
H 3.34321108 -0.87482823 -0.09327124 17.38977274984438 6.243975109414753 1.6473508986133663 
C 1.59166522 -0.28414712 0.00148997 40.21383844105663 57.550725943867015 -9.819597912568971 
C 0.1207798 -0.33145202 -0.08405952 47.2271066536728 18.490296502694175 20.329123111514875 
C -0.51829443 0.99112056 -0.0060005 -27.17443281691888 -16.12531398059335 10.00705843271269 
C -1.96358847 0.89391417 0.15281469 49.59865506690837 17.495889503657967 -25.166021940231186 
C -2.64264278 -0.28386208 0.0064303 -10.953276036059238 -28.879585376625233 1.2066357633791989 
C -1.94457128 -1.55178027 0.02697596 -31.51711226478072 -13.138748968133456 -21.629675901780764 
C -0.56024639 -1.56398973 0.00902678 7.285025193495925 8.923580857407037 -5.545219385346264 
O 0.08184156 2.18422481 -0.06103878 13.101543832797976 -34.0651464243742 -0.1611507085839326 
O 2.11521958 0.91056466 0.12108466 4.247865940263964 -66.74329014672593 -9.994867006533118 
O 2.50324945 -1.35453872 -0.11423442 -67.8223102207176 30.845911464370893 7.225552710548347 
16
Properties=species:S:1:pos:R:3:forces:R:3 energy=-310667.2452312082
H 1.04087463 1.86695432 0.16627803 -21.305542391095987 15.890337611114411 -18.371075240495177 
H -2.38703357 1.90675932 0.22860669 -4.614540780993697 0.5522522770515312 -18.303173941548724 
H -3.72524587 -0.26003386 0.2080902 32.34538099191121 2.698078468255426 11.631103204477181 
H -2.34692692 -2.44897593 0.28461413 -51.46284283045161 -55.289533594686446 2.7315091351997394 
H -0.03571073 -2.54500178 -0.0439899 -1.5478308672817314 10.903017382643347 12.247449109094692 
H 3.22727229 -0.84395696 -0.13799057 4.903511140185159 -6.6455960963862895 -10.382982677605508 
C 1.58629858 -0.23844582 0.02967517 35.65233824965403 74.28817379272054 33.76282253437754 
C 0.11355439 -0.32530842 0.08159684 62.1111505955804 -43.84587549467938 -14.926945761550693 
C -0.50586283 0.89319432 -0.08685025 -66.38177837083288 55.95146008869121 -8.861000337496455 
C -1.95253341 0.94513854 -0.09840055 31.10664268115983 -8.069671121787014 42.573036528092395 
C -2.5686704 -0.24422172 0.19609201 -71.75217571674953 -39.82939170030227 -45.756776306709334 
C -1.94650126 -1.54047801 0.01079536 12.293504026900566 65.39085057074723 33.10332578769715 
C -0.59022787 -1.58764295 0.1028901 42.63144651538226 24.883510748280276 -32.04803280702588 
O 0.05754043 2.09928574 -0.21389937 55.680664808680206 -27.111886685818643 29.55390725802958 
O 2.25638437 0.82469755 0.42952276 -57.84045522852826 -46.78666544310039 -23.43304883295174 
O 2.35397428 -1.20296989 -0.43705878 -1.819471637698925 -22.9790619885646 6.479884720057329 
16
Properties=species:S:1:pos:R:3:forces:R:3 energy=-310687.07484318997
H 0.93604567 2.13212457 -0.2547674 1.8191751824372875 -13.550431646684961 0.6155300597374856 
H -2.52524527 1.79372241 -0.04867905 -9.69977899656251 2.2495333566508955 0.6480251138760712 
H -3.73796281 -0.47314133 0.26011639 29.43656315054726 -1.0204239127974972 -6.655718264839632 
H -2.21751859 -2.68496433 0.12802652 -2.964903619402584 36.76699343191555 3.797399798564023 
H 0.09478507 -2.43472025 -0.02357113 1.375306949040346 12.762413243337486 -7.121998516016352 
H 2.91164621 -1.23788875 0.98755013 37.22992611027787 8.472781499993017 15.628859327066145 
C 1.70156112 -0.10750073 0.03364328 -20.730893511938277 -7.4378490666909896 4.946899146457345 
C 0.20011326 -0.23747796 -0.20235227 8.617493171408638 -5.663752871338267 16.870695002391106 
C -0.60966701 0.94159246 -0.12373311 47.204610442598714 4.431799828615245 -32.53974299054585 
C -1.98047888 0.84896929 -0.04774099 -35.13196439979688 -40.95704348123397 13.090871443379037 
C -2.6030839 -0.45382047 0.09625902 -47.39942068158894 68.70244083131891 5.30337118290257 
C -1.8553681 -1.59417405 0.08899941 18.603148720052165 -58.90871041905937 -15.7651066078515 
C -0.47754926 -1.4829016 -0.11252195 26.512398413198873 -9.278016839115338 15.285354243764933 
O -0.04945006 2.15131874 -0.31094589 -10.593827588787175 17.296481836470267 8.730255266367088 
O 2.37063054 0.93710705 0.05853471 -17.894588627570805 -21.244824796049524 -0.8767533922607451 
O 2.18657198 -1.34018152 0.38714773 -26.383245899735023 7.378609004668535 -21.95793962717068 
16
Properties=species:S:1:pos:R:3:forces:R:3 energy=-310682.2099168835
H 0.73915687 2.34105593 -0.07388488 7.807916541434899 -9.740810776415204 -3.277030691991058 
H -2.6398968 1.68303083 -0.05374658 4.885038419922018 17.35778759875581 -6.344852905844687 
H -3.72732712 -0.42276822 0.13451563 28.967637332615695 -2.0667864751672096 -9.208735244470704 
H -2.35887064 -2.50118536 0.05338808 -13.282331737912763 -38.77223935223 3.751841739776652 
H 0.25301029 -2.42633774 0.16207866 -28.211471268399574 36.57120726220401 -1.987630548667963 
H 3.15910259 -1.2183411 0.14675917 94.89403077604754 15.019200267330122 -10.559175526164916 
C 1.67853201 -0.16671517 0.15999603 32.09249872462938 6.293536500055274 -34.89836002526879 
C 0.2584047 -0.21929103 -0.01219631 -59.79227160994836 2.6076975597295458 11.189834290814273 
C -0.59469407 0.97951923 -0.16199457 21.403392786394072 -49.421777999605105 10.357099761622479 
C -1.96051906 0.83991005 -0.14779397 -50.508973123891685 -34.23329110549067 11.866857472562657 
C -2.59106599 -0.41202073 -0.0161884 -35.200114721163104 28.30294550393037 1.0497267366787726 
C -1.86206242 -1.57260114 0.01596726 75.1359884081613 11.545513012979358 5.065580860080168 
C -0.41260793 -1.46814377 0.07791798 -16.745662031242965 -35.43876832170739 -8.019101783256927 
O -0.22289638 2.22215365 -0.21932758 35.89553828809079 54.372911713019676 -1.4565451772973335 
O 2.34809432 0.86147415 -0.03360025 -5.378338789465406 -9.660325544522774 15.578872226669912 
O 2.27941579 -1.40760717 0.29298243 -91.96287918109287 7.263198971313142 16.891618814757464 
16
Properties=species:S:1:pos:R:3:forces:R:3 energy=-310690.4185147531
H 1.04860391 1.94953814 -0.02049271 -22.52311261034541 6.583821934787359 -3.4736943692770432 
H -2.31413267 1.8934702 0.38856352 -10.973954383468962 -3.0806516117562444 -5.17599502936645 
H -3.58404503 -0.30527803 0.49212463 -16.379443731616156 3.023948020952358 0.10052086429492255 
H -2.51380942 -2.4337129 0.01387365 -2.6377557516174726 -11.557847923505562 -1.0278578249383135 
H -0.05262092 -2.52500253 -0.23581263 7.192035478667637 10.517810530598142 -7.475125351289263 
H 3.25709401 -1.0690164 0.18599126 -23.957417713914715 -1.833486856648089 -1.5741726960097737 
C 1.60059298 -0.20568705 -0.05559909 -5.442937576797215 -28.26925632799791 24.174450239317274 
C 0.15875114 -0.31326401 -0.19554784 11.369917818227409 23.107321578780393 -1.3847342263604114 
C -0.51454806 0.96651398 -0.03027832 -5.677519067867657 -51.58853986138582 -30.683667428782037 
C -1.88354082 0.91606133 0.1180806 -20.067545218498697 21.879510608972968 22.732577225828894 
C -2.54205336 -0.27881447 0.19645228 -12.98836788629428 -31.31473530169246 -6.1707316866536 
C -1.91530985 -1.53118138 -0.05536685 -12.472679215392047 26.98693316468062 6.0046610065475345 
C -0.55004605 -1.53414969 -0.24672799 7.8801401580960215 -11.697245930811597 11.509786596488924 
O 0.01622982 2.14622144 -0.13343111 65.06656290332641 21.287782349281812 12.459926895857457 
O 2.18610699 0.82175406 0.24553429 15.645511812022832 64.54463088461408 -7.477670123255156 
O 2.29779381 -1.32453408 0.03792854 25.966567357114403 -38.58999288722796 -12.538274092402958 
16
Properties=species:S:1:pos:R:3:forces:R:3 energy=-310684.55440699426
H 0.92860979 1.87597751 0.02097972 99.55964605533714 0.1983167118248752 8.869719679651729 
H -2.5273134 1.76662364 -0.09171486 6.1156645288939515 8.468218460605895 -7.444853711612955 
H -3.86287795 -0.39175977 -0.31658314 41.181460114293394 11.570086782526996 2.7826939148529855 
H -2.48153241 -2.5243223 0.01065362 -6.675254666581529 1.6219683991119824 -6.680546985912278 
H 0.0556205 -2.47218956 0.07905121 -12.559762355587473 -0.2674287340598511 9.90071874454235 
H 3.24963982 -0.88974523 0.32461996 -6.951213011429208 -22.67386485417215 -11.357508200975273 
C 1.69049036 -0.14599249 0.07448418 -41.767789330759605 19.442849947892434 13.543633334625095 
C 0.18855814 -0.3045256 0.12226766 2.6748849944059723 -15.695861773659308 -21.109751478100254 
C -0.52323281 0.89730974 -0.06948219 -49.51032325715092 8.475162628654486 13.132529336744305 
C -1.9559766 0.83081943 -0.15474914 -6.889323825188763 27.773152677500484 -1.6867913066215903 
C -2.70489376 -0.32706226 -0.22668079 -16.198598907091135 -29.249917289462523 10.305960043169001 
C -1.99695483 -1.53941442 -0.06493187 43.338245663609484 -22.61489397352727 13.173050027725935 
C -0.57707233 -1.56234609 0.13955518 6.890590282066477 40.48769076772564 -23.968093660796796 
O 0.0405348 2.1188195 -0.06357161 -85.38048734648766 0.8685878285342079 -10.159202830448084 
O 2.31769924 0.93671368 0.10519891 -19.022077951019128 -11.554145790198236 -2.0706249778948895 
O 2.34692755 -1.2747941 0.09147948 45.19434019851004 -16.849921789297657 12.769065699408626 
16
Properties=species:S:1:pos:R:3:forces:R:3 energy=-310689.08315350296
H 1.00315777 2.11338346 0.04824127 -41.60657695948125 -6.822860927171778 -5.388275969835488 
H -2.64775045 1.75145295 -0.28786492 29.834308874338674 -25.641521950044826 -4.4451806333045045 
H -3.69872141 -0.39710836 -0.22929504 -2.6141247098018416 -3.3159339230651943 -8.19385978835001 
H -2.28145796 -2.67796959 -0.20268513 2.331318248410341 36.35345375760515 5.00993976493399 
H -0.01650655 -2.55023896 0.33202237 1.6557915728227028 43.060362731203256 -5.780933335516159 
H 3.32246098 -1.14578733 0.14846135 1.0562416375085133 13.748404470406337 1.4712019254326807 
C 1.60957539 -0.13544891 0.20272272 57.479367976569876 -39.72064716704953 -12.891563385159245 
C 0.17245398 -0.28017742 0.09906237 12.313379573461777 25.609468021335555 10.072654495544649 
C -0.55547082 0.95024653 -0.09049754 -17.530173961755796 7.88083149176616 -7.604760493919058 
C -1.96854204 0.81076505 -0.29369985 -3.9815898242613583 70.49780591296255 16.55743191324004 
C -2.60054673 -0.38733623 -0.2575019 -7.391018621920672 -56.7792497441189 0.7669179036451794 
C -1.85356161 -1.61211599 -0.13676181 -14.693665116168317 -9.728555315899118 7.306557332059165 
C -0.49439268 -1.51055696 0.14919201 -6.75158478152685 -58.72367253131375 -12.30243681684422 
O -0.05105426 2.20962882 -0.08864702 39.62627715652305 -28.68352291060985 5.243580899914517 
O 2.22739156 0.93135817 0.16937403 -4.488387208956568 15.979079714953961 5.212223048159573 
O 2.36714605 -1.33311609 0.17718481 -45.239563855762285 16.286559554861007 4.9665031399988955 
16
Properties=species:S:1:pos:R:3:forces:R:3 energy=-310686.0293032409
H 0.83550474 1.9949637 0.06658901 29.313903007313264 8.857393069872852 1.000578011762451 
H -2.60096315 1.72988316 -0.49061817 -2.6568201965828426 -9.120442566807798 5.2648782459105385 
H -3.6130353 -0.65072304 -0.61594633 -14.126644623803063 6.471055096544724 8.039764714993044 
H -2.19528496 -2.61701473 0.1601712 -16.87674150390746 -5.917269552880005 -10.814766208717066 
H 0.2171132 -2.27759039 0.59145665 -13.963293031356736 4.655819211624072 -18.955201201456898 
H 3.28886151 -1.36086705 0.19102075 -2.667378747181316 16.521286901920174 3.8158049270275116 
C 1.69147186 -0.10957181 0.28370233 -34.26808072335433 -44.291727606687196 -41.68374544990648 
C 0.20130967 -0.21925932 0.03926004 -0.5253519266105645 4.712891592773434 14.932010403240504 
C -0.64234851 0.95954273 -0.15555126 22.462333352604535 -0.9880936877843819 3.196224102595014 
C -2.0415905 0.80537678 -0.23834429 14.67270335752847 4.447991029184827 -23.133560241077387 
C -2.58384851 -0.49613157 -0.28637826 -29.236900531834557 34.50440655718425 -16.881405338083535 
C -1.84584885 -1.61321027 -0.07825747 90.30621128651677 -31.611227323782185 31.37295911507802 
C -0.41689412 -1.46670191 0.13620583 -27.693982521148676 -11.840835815517185 16.72209146630071 
O -0.05744642 2.18943236 -0.2678771 -32.2071605049044 -19.891459093833475 4.304147378775278 
O 2.2363426 0.96485162 0.33606142 31.109607233776202 28.960497504094416 13.562267326550568 
O 2.30918525 -1.347602 0.16270839 -13.642402741234264 14.529714684093483 9.257952747007726 
16
Properties=species:S:1:pos:R:3:forces:R:3 energy=-310671.0945534265
H 0.91504618 1.9586207 -0.03201239 21.36075421902331 5.746122372873662 -3.2390915334277652 
H -2.75479401 1.68260607 -0.55790801 -7.997404815568218 29.788051181133838 4.895237666743387 
H -3.68513356 -0.32581325 -0.0656938 -7.137246988853928 -25.13825594042624 -5.683213380533185 
H -2.31696847 -2.64041211 0.05205142 12.60396502091864 37.14784239161469 -10.296140259082529 
H 0.11016646 -2.43804096 -0.07940306 22.345687693718638 -20.078178475823105 3.071299041162111 
H 3.15372983 -1.00227128 0.4610774 79.2930157129754 5.628192469794352 -13.736267591994904 
C 1.66398403 -0.12257661 0.11051973 12.11821714562072 20.242642368411097 -41.221428212667334 
C 0.15948985 -0.19121288 0.05910192 21.93295556354094 -87.2368237888817 -8.35167833979314 
C -0.61468705 0.93552101 -0.07227369 -61.072799440201166 46.85060491393032 1.8795097572857071 
C -2.11088618 0.89985365 -0.2253205 99.40183580464135 -54.83529535623744 6.509576493241872 
C -2.5896526 -0.3904666 -0.12355797 -21.233593884917664 -3.8490541633517026 1.363211574365545 
C -1.80385582 -1.6044349 -0.06826032 -82.68613591378154 -19.89245162604944 10.587473959619764 
C -0.46726549 -1.54359035 -0.05501452 43.539696500460394 71.92156432414386 13.280084607029552 
O -0.0356123 2.1268526 0.09058995 -11.14303349157012 17.839696971326045 -9.888693333309297 
O 2.36624575 0.7435702 -0.51187143 -40.402197813553634 -32.96719708901645 45.37804285175724 
O 2.28351711 -1.18232288 0.71665567 -80.92371531245313 8.83253826073718 5.4520755137819235 
16
Properties=species:S:1:pos:R:3:forces:R:3 energy=-310679.68667749065
H 1.03040495 1.89418188 0.28688201 7.051548887640869 10.92345856584376 -5.635360758020742 
H -2.34615695 1.77854859 -0.81679341 11.23654852512203 -37.56072986434949 19.75370463449796 
H -3.61688382 -0.42959649 -0.7661214 42.29165542359884 -2.0918405022386994 22.785712681103714 
H -2.40785827 -2.49351215 -0.18619532 3.7290953204617465 -11.940741238688949 17.456322212797765 
H 0.15342154 -2.40703566 0.70157989 -14.949596129360827 10.766519893617168 -12.32576547429298 
H 3.09155159 -0.84538078 -0.4839376 -13.763579422339026 -17.46547319381398 -3.0543465434806443 
C 1.55402976 -0.21525473 0.09883073 -3.1298501411565205 46.67309936147238 14.859726309706012 
C 0.13455757 -0.24834544 0.32867431 -3.1610075891545986 -19.80598274115613 8.204555894189884 
C -0.55889823 0.98650501 0.08165285 35.9909613077066 6.241902294225386 -11.068941020939638 
C -1.86730785 0.80658209 -0.36417697 -33.21812868067671 84.63149194214002 -13.821076327423054 
C -2.53798729 -0.38356219 -0.2987028 -27.02470512247635 -37.0612798268587 -23.821615116021817 
C -1.84471112 -1.5935768 0.09141185 -32.179692146182134 16.153498575227733 -20.2413687966071 
C -0.49927691 -1.53638725 0.41091356 8.333898139021183 15.899009520427827 -0.8016838050879065 
O 0.10045219 2.20338338 0.01332909 -28.216481362321243 -50.20111619289184 9.25061132890854 
O 2.20798646 0.83676531 0.20927045 9.16917151107364 21.044042762268877 8.600502727453682 
O 2.16776009 -1.24312097 -0.40459769 37.840160293221466 -36.20585935522537 -10.14097794678367 
16