16
Properties=species:S:1:pos:R:3:forces:R:3 energy=-310687.77015597007
H 0.87099784 2.14262664 -0.20645888 22.54228733666811 -3.1924045730040795 5.360062915495991 
H -2.49631296 1.80283055 -0.41376353 -1.3625439571163378 -11.13320659255737 2.0698885830249822 
H -3.58730066 -0.62815318 -0.40699835 -49.620112498745684 11.219676663271729 -7.559326946341574 
H -2.25416013 -2.59046536 -0.18648748 -11.627743773452307 -9.570985786875763 2.3141807626456137 
H 0.23132591 -2.39188482 0.10293465 -22.793573488821288 22.95438149512277 -3.3381751826142705 
H 3.25883036 -1.43567863 0.16976047 -74.3213969409817 18.200618208337925 19.31090482586396 
C 1.65798273 -0.16890676 0.17206207 -2.077629622816855 21.536617409331775 -20.937982927865523 
C 0.1925582 -0.20248779 0.06831588 -12.825311563288544 -37.91957472870886 3.1954509472726644 
C -0.58622239 0.979352 -0.06423797 28.396050243400175 7.526053993596454 10.811231276177304 
C -1.95173006 0.84375305 -0.26196277 -37.742555362880005 6.845859926369597 -1.8820379277569497 
C -2.57065171 -0.41386708 -0.2594636 41.7166923018638 -8.879623657032507 5.302037134225202 
C -1.81651862 -1.60322918 -0.09926744 -13.332086417383872 16.749836121326823 -10.676545721710253 
C -0.46780216 -1.48803376 0.01282048 69.02064167930781 -1.973272627436346 14.023727215173064 
O -0.06602986 2.23299185 0.04281342 -21.458559553121635 -11.423284508606308 -10.523369659664365 
O 2.26690605 0.88136582 -0.07621204 11.36759479479722 -12.910486717420074 7.776870560615198 
O 2.20987057 -1.37771706 0.41681234 74.11824563675006 -8.030204625715765 -15.246914668719999 
16
Properties=species:S:1:pos:R:3:forces:R:3 energy=-310679.6921402587
H 0.98138381 1.95349626 0.05090459 4.972131046685818 -10.570988675430636 -1.9749304052594217 
H -2.35486035 1.73348069 -0.6498713 -23.50083036397249 30.121105623551813 -4.18704162132332 
H -3.72101337 -0.45492793 -0.3261433 -2.919895781580812 1.375496680407794 7.749424732492818 
H -2.3437366 -2.42053285 0.50293218 1.2252602687362992 8.013408656412444 -21.00451460350321 
H 0.0651233 -2.42445873 -0.06850524 1.0027705948775203 -15.001085665023039 23.414892726908025 
H 3.29187546 -1.09706164 0.52575781 -25.507549074026752 7.913362120536141 -12.531316880322855 
C 1.61848412 -0.11445394 0.12988606 22.38864761859302 -62.12960790016994 -3.0178244410679786 
C 0.22686015 -0.30151796 -0.08151277 -58.26045288425818 -30.034234745323715 16.84822013609586 
C -0.58090152 0.85407036 -0.19491745 73.11355282595606 29.02384762186421 5.702320515056231 
C -1.94402364 0.81268366 -0.32335178 -32.32183888667407 -11.328613299534013 -6.89193263149117 
C -2.64620303 -0.36223195 -0.1287191 20.444778609826905 3.9739804106056527 -10.709424981867922 
C -1.83826097 -1.48819458 0.11777597 -96.33641132094382 -54.30619860676187 35.60377057705051 
C -0.51239901 -1.52517271 0.15876089 95.44178404804845 32.88028233540964 -44.074134187929616 
O 0.02639711 2.05239012 -0.2197549 -35.37892942005643 19.627495328871646 -6.970696051224011 
O 2.11956123 0.96589982 0.30509426 46.72240698640894 57.31650494239473 12.4200169027148 
O 2.37201694 -1.25266622 0.15426438 8.914575732379543 -6.87475482781086 9.62317021367125 
16
Properties=species:S:1:pos:R:3:forces:R:3 energy=-310685.40628555807
H 0.95602116 2.07683739 -0.12854867 2.8881110342491096 -7.681607626840674 5.842035136581696 
H -2.60061291 1.85660472 -0.20197431 2.06251514775754 -11.174011880590172 -1.6233996851151673 
H -3.60221577 -0.54032629 -0.52412042 2.843422182288859 10.439064898181 2.3844786059271383 
H -2.31226596 -2.53135596 -0.15034106 -27.171929548689608 -41.98585352047266 -1.4933589916874508 
H 0.14941771 -2.33259139 0.47430971 -0.11080311858954998 -9.970715389278054 -1.3653875559859625 
H 3.12394805 -1.21848859 0.45388854 56.26353261351154 9.821727647168574 16.97800232053543 
C 1.65936126 -0.18112385 0.05836223 -31.311790908033874 -30.171537406840503 28.173708797172214 
C 0.19461208 -0.20154462 0.11025837 -44.833571932413165 -53.56134527532983 -16.205681816202173 
C -0.61341224 0.98414308 -0.10853257 31.257464888428327 -0.9697312488785688 25.560477010618424 
C -2.01244331 0.91859095 -0.11843792 1.4734466846737981 -35.78555338602336 -21.467136596751324 
C -2.52473859 -0.4069527 -0.27733875 -67.313897747757 51.151509072143284 0.9196409820512872 
C -1.88549556 -1.58399072 -0.04677812 90.1636838974689 18.39841908800755 16.69928931339662 
C -0.49637175 -1.48619337 0.23804104 8.453982678942072 38.88384645748911 -17.30942270155126 
O -0.02735129 2.18072063 -0.15855412 -2.160214943782722 18.057184852010483 -8.528143927193256 
O 2.26431329 0.85131553 0.21294366 38.03654055927733 47.904419175756544 -7.117539828881327 
O 2.29542982 -1.39364182 0.05889815 -60.5404903015105 -3.355815456502735 -21.447559877093845 
16
Properties=species:S:1:pos:R:3:forces:R:3 energy=-310671.51417479117
H 0.60636031 2.06906715 0.33191176 61.454273327591835 11.762970062316583 15.568886427636922 
H -2.69349024 1.58487325 -0.73424493 26.755883048686805 -14.098328403032518 10.148499609681929 
H -3.64126362 -0.56380378 -0.64554923 12.949354373862816 -12.934337136129317 5.697246386798048 
H -2.14029128 -2.50654403 0.42308637 -12.421003505825528 -1.5694104386868322 -6.24827845399268 
H 0.18850812 -2.03269326 0.97600823 16.23478067886344 -44.795612614892086 7.4362565090254735 
H 3.15724793 -1.41496593 -0.00320097 40.1684392822895 1.764832561337081 -1.490741884637717 
C 1.76797162 -0.1442484 0.15544526 -69.45322919708894 47.1087237669537 -17.599520776557988 
C 0.22139615 -0.16060928 0.13925147 9.739458940422137 4.849615573619502 7.012844874502552 
C -0.69725581 0.95418019 -0.07794391 65.28968343398193 -13.990507624375038 -10.302208105377721 
C -1.99667041 0.73147 -0.42403237 -57.09689681367906 47.23124042584108 -23.51006079499883 
C -2.55822391 -0.51352441 -0.37546326 -24.81585610011151 -4.125024366409847 -4.031196276101648 
C -1.7596163 -1.522807 0.11270567 14.480762805470889 -63.09723075922774 22.22901950423286 
C -0.38086749 -1.39888202 0.35609526 -43.85696885056985 43.333324506266315 -8.803154801024741 
O -0.2303139 2.20102103 -0.07074635 -34.31419256057044 18.93600631617641 -12.322569686572532 
O 2.36146529 0.94566062 0.08886375 10.835854850208896 -40.603887000434895 8.723583837159204 
O 2.20957673 -1.42419842 0.04552451 -15.950343713532936 20.2276251306776 7.491392444405823 
16
Properties=species:S:1:pos:R:3:forces:R:3 energy=-310680.01860519504
H 0.84720669 2.00772387 -0.08033458 18.414875912491556 9.184797075004019 9.589811881810775 
H -2.47524733 1.72574285 -0.43197232 -18.37667113001384 35.75739132198886 -13.590108033081448 
H -3.7030915 -0.34565372 -0.50188207 13.938003025896982 -3.539099514920507 2.076814963757876 
H -2.35399583 -2.52855058 0.13219402 -9.356814647658526 16.23197621208835 -9.01658954537207 
H -0.17792918 -2.47281147 0.11423481 36.95799007042008 -38.37800247291533 11.320061158146299 
H 3.3306965 -1.14660279 -0.02907141 1.313622909840954 2.013353378809706 2.1269680791006245 
C 1.6987282 -0.18471049 0.16812379 22.7788621929178 14.576626950516012 -32.86907632651975 
C 0.25200689 -0.2993523 0.11414859 -66.35073357583421 15.236459284552573 23.055017384059205 
C -0.60637967 0.9407734 0.04102336 36.158578298457364 -34.81797084488114 -36.080751677351294 
C -1.93160722 0.82076562 -0.40593286 23.839692957876455 14.931836087546662 39.58479476467268 
C -2.59736094 -0.34992179 -0.30630039 -64.92777203639619 -19.094900407308756 -13.243589778500956 
C -1.92605807 -1.50646889 -0.0123091 15.24968000340055 -46.23262731955275 20.767766617380726 
C -0.54921444 -1.49500699 0.19402781 6.708373462590599 45.01421398153922 -24.19553532334597 
O -0.1193854 2.17826372 0.06339782 11.693471462420431 -2.696844028545969 0.31173930910625214 
O 2.25805793 0.94038734 0.00517001 -11.051231969430473 -40.854252955455955 13.687584894749877 
O 2.39529296 -1.38807534 0.13722026 -16.989926936979526 32.66704206571394 6.475092817208223 
16
Properties=species:S:1:pos:R:3:forces:R:3 energy=-310682.0565653025
H 0.96000141 2.05111196 -0.22191137 -16.456054886149506 8.41191686313679 -2.1380211170755086 
H -2.57544222 1.88285574 -0.22089572 3.0190114479355743 -22.350887519007756 13.6431296495358 
H -3.77356376 -0.43046452 -0.12154464 24.507172651842215 -2.2703124988495755 6.292723026817341 
H -2.52876669 -2.52577852 -0.22663788 14.130965755696687 -2.5766871535412395 5.644590003226033 
H 0.06719209 -2.5380435 -0.00318474 17.875526554247525 4.150334530827392 0.09910143650220325 
H 3.29220769 -1.19010041 0.32238695 -21.268965740915174 4.041563909511626 2.711101154988629 
C 1.67618771 -0.1485441 0.07834778 -1.3753899565136043 -43.618514467961376 19.96759947741135 
C 0.15739654 -0.29388036 -0.00797359 42.13152214947284 54.607547751858256 -4.169439293708344 
C -0.63096755 0.97212569 -0.10299537 19.637908023481394 19.251080154065555 6.113308302474458 
C -2.03710128 0.91244865 0.00313273 8.868824384761584 -19.52803458859234 -24.82990333622893 
C -2.63969173 -0.40580012 -0.0122381 -14.775095447434847 23.859579176827086 -11.415437930741293 
C -1.91706642 -1.61653465 -0.06895046 49.02040840669544 29.18011749102055 2.435267321350838 
C -0.402409 -1.55290414 -0.02091257 -116.74233531835951 -15.220416311613812 -2.4861805479844246 
O -0.03638636 2.26166754 -0.26692822 4.681028581252659 -73.99203988858687 11.587897814646164 
O 2.36629598 0.8544288 0.01456339 -11.265460028057944 30.751003091089288 -11.422101059201852 
O 2.30611259 -1.34171683 0.38090098 -1.9890689495974272 5.303750645637466 -12.033636087833512 
16
Properties=species:S:1:pos:R:3:forces:R:3 energy=-310679.0102943301
H 0.96246709 1.8637411 -0.02392571 31.381232588519797 -0.927626300978749 8.295240372903683 
H -2.56655907 1.71336634 -0.17754764 -29.988405133516686 37.453778292519125 -8.88279809997412 
H -3.70730006 -0.41126594 -0.23368039 -54.004120181721845 -8.736646841807987 2.815505583211 
H -2.27980777 -2.62342434 0.13837857 -8.233132995590672 11.88944380603628 -4.963411704530542 
H 0.15937857 -2.45790998 0.16705938 -13.349075675517781 11.565862887959186 -9.165624720323411 
H 3.3231449 -1.09040333 -0.08489211 -33.53761851614321 -1.1050867922369183 19.753703448676912 
C 1.66687788 -0.14075782 0.18782638 28.754730278634078 56.392568916512836 12.642045292186472 
C 0.26059084 -0.31059405 0.03856789 -94.93723853752064 48.22968395971973 -35.72166253385633 
C -0.65122101 0.95003142 -0.19667387 80.71800500640302 -36.91336288115426 26.93856471001293 
C -2.05941968 0.79784566 -0.26929316 68.09893736863555 27.744555417141903 3.8149013313900415 
C -2.66627928 -0.40880361 -0.17753872 46.48714601987883 -57.76787112226899 9.782021615245924 
C -1.88538729 -1.59370259 0.0036914 31.06107987908828 -1.917090797892942 -18.239457405075548 
C -0.44542458 -1.5285156 -0.04365744 -13.83369939246357 -15.03551005000436 37.642736504644645 
O 0.02837469 2.12608146 -0.19393292 -69.50719947038053 -11.36331279499813 -10.429904430596409 
O 2.20419129 1.01820795 0.34161723 -13.109734298766492 -55.181800566786414 -15.47294283258168 
O 2.36507529 -1.27768888 0.20899268 43.999096617925034 -4.3275863175813685 -18.808915945512506 
16
Properties=species:S:1:pos:R:3:forces:R:3 energy=-310687.1243143351
H 0.91189727 2.08604138 0.06015836 -5.079368401388394 1.6633998006573623 -3.5807704523172896 
H -2.46073582 1.69614074 -0.71803004 -6.247212400871832 -8.024188955546622 3.18887201210641 
H -3.74147662 -0.62101088 -0.36324736 31.38711781837382 9.884647311898473 -0.27839757874043053 
H -2.35440661 -2.63708766 0.38769397 13.838992897615363 27.457738508970973 -18.56020302503034 
H 0.20182041 -2.42543258 0.09828161 -5.646169516860037 3.021283481060762 15.827740489709173 
H 3.25682099 -1.0290271 0.20183876 2.3289335622857315 1.9485767183209142 5.810593091532445 
C 1.61990305 -0.01037101 0.15051858 17.14152348539141 -99.55627595192286 35.75534933814671 
C 0.17588288 -0.31929198 0.03540289 37.816417784227454 95.89142367247895 -16.572095776301666 
C -0.53269779 0.88918075 -0.2356052 -62.7396985987669 12.496869964741649 11.128751462885484 
C -1.96136265 0.7487101 -0.43685192 18.59383765319466 4.218522798467106 -5.469507083166195 
C -2.60213209 -0.49661211 -0.28116434 -18.291444985577307 -3.798809739788369 9.401186885399348 
C -1.84879925 -1.65198307 0.07589487 -8.152690453255918 -11.213349122167344 10.11158737214495 
C -0.45131588 -1.52979211 0.15192953 -11.659765684993321 -51.02580966956698 -13.086486277148897 
O -0.05817286 2.17098628 -0.20304714 6.592934969530089 -33.44027328061095 -2.136787863187098 
O 2.22250301 1.02807106 0.35573037 -4.407785766601578 26.922171919865438 -14.96364336547825 
O 2.30325616 -1.23537279 0.27362773 -5.475622362303249 23.554070171499404 -16.576188044733307 
16
Properties=species:S:1:pos:R:3:forces:R:3 energy=-310676.9628935441
H 0.92768529 2.13685859 0.14693392 30.121154242214725 -15.188327994094191 -2.8753504139671944 
H -2.61168648 1.70151876 -0.14517004 -19.0284813846705 33.1651106216855 -6.40283955502094 
H -3.65348854 -0.591288 -0.51282858 25.79573086222226 19.42560810987561 3.4257860131754128 
H -2.28414942 -2.60147471 -0.02079033 -5.286703282272276 26.89673843005905 -4.863909460514605 
H 0.08468946 -2.4607599 0.38738734 9.609993370201995 0.9746417338323285 3.16566668004649 
H 3.21520613 -1.44606902 0.28982677 -13.93208933633784 22.778463757046158 -6.359886745072837 
C 1.63350674 -0.18991 0.01769043 50.96494147524761 61.85563817721732 31.815083005715493 
C 0.21624531 -0.24708701 0.15982044 -44.90899489425788 2.8991439132662027 -21.610624500846907 
C -0.57736298 0.99822833 -0.06116314 -2.9232931588791757 -52.23552738184616 22.540444570761775 
C -1.99138166 0.84620958 -0.14448287 48.013036826157304 2.4072155386736718 -11.108854571545434 
C -2.53651598 -0.41289245 -0.30726597 -95.27945463334424 21.064160216323582 -2.9494571144502357 
C -1.89192281 -1.5387642 -0.03473135 123.85157439991501 -102.60968213931358 32.950966756352344 
C -0.41964811 -1.50184002 0.25954281 -84.74450780280243 20.81017513546846 -26.64987064712531 
O -0.01161421 2.18860365 -0.07274205 -34.51404253900851 26.287998381634104 -4.093218274299307 
O 2.23312319 0.91815629 -0.08955544 -1.7055320224412525 -39.476066832914576 -3.2571065267669392 
O 2.22951894 -1.36553664 0.23618968 13.96666906387626 -29.055290852734508 -3.726829216441792 
16
Properties=species:S:1:pos:R:3:forces:R:3 energy=-310687.43249306624
H 0.97408516 2.13882815 -0.19248223 -31.877555615910836 -10.302413252418773 2.2633422427379593 
H -2.57105135 1.68589264 -0.17857336 -25.12788237791103 16.730120660606893 -6.675949557714806 
H -3.69154518 -0.75713468 -0.13648795 -31.743559023471835 9.61814588989702 -2.1182024899245335 
H -2.2169697 -2.74738802 -0.02430607 13.770031474653301 33.22750852515492 -5.234719259233655 
H 0.1952869 -2.34974437 -0.1097313 37.180320844258624 -34.85444077116775 4.5934782275648915 
H 3.18124666 -0.9601274 0.71992636 11.473749494884299 1.3006583283390323 -0.333858429087533 
C 1.6044635 -0.08988837 0.216762 52.78254781644033 -15.694853825769743 -20.376778887733593 
C 0.16847737 -0.20925364 -0.04758325 26.974970601963033 27.976366830247603 11.706470432732702 
C -0.61510891 1.00213465 -0.12691402 -7.910149731321041 -45.11276875453897 -16.194405843870538 
C -2.03024885 0.76221945 -0.24166306 9.341757092009445 -13.682132489577846 16.659340188159426 
C -2.64930265 -0.54021575 -0.18312461 78.67462663869468 7.328751158766377 6.881403726418862 
C -1.78192055 -1.6811201 -0.09557142 -10.1342661996602 -1.4060659611667838 -8.680121124161083 
C -0.37824501 -1.47685009 -0.10056995 -74.78418257753424 2.1349415398176204 7.153574558843862 
O -0.06083956 2.22212457 -0.17194471 15.9640150443786 -1.5369912770952256 2.6350414072419213 
O 2.32470741 0.90301203 -0.03485858 -28.083853207369955 -3.759518745232011 14.495929456656253 
O 2.26119839 -1.26070118 0.63629945 -36.500570274103175 28.03269214413764 -6.774544648630134 
16
Properties=species:S:1:pos:R:3:forces:R:3 energy=-310678.31649323786
H 0.94607847 2.00455801 -0.24156815 59.02052622882267 -13.07525536601703 7.299227772170444 
H -2.57659315 1.76199639 -0.21100893 -11.430456354295837 7.183881773151565 3.9767042415495757 
H -3.53139432 -0.44776091 0.14318817 -23.5375599850683 -2.722884658728187 1.706692941245824 
H -2.42643076 -2.49312266 -0.08266188 -1.9408985270445083 -11.836489781381582 -4.4382530667505655 
H 0.20483858 -2.43905894 0.05613307 -17.884084624740474 18.93837677244846 -10.179754295005827 
H 3.26981301 -0.83684928 0.14970476 -37.125732758201785 -27.792478003096093 8.314088998438578 
C 1.56448461 -0.2028799 0.21119166 40.891813837105396 43.28486474337804 -11.200791277284388 
C 0.13490223 -0.25890661 0.16003311 -1.8511176439681813 -19.757970032802397 -43.257213768214605 
C -0.5891514 0.96425523 -0.15965392 20.66331949960068 5.982934393332662 26.342071821356743 
C -1.98273148 0.86396906 -0.09153295 39.524428172655995 15.860605520014284 -9.368759423060416 
C -2.45836199 -0.40848607 0.0310498 -102.67462837221203 54.85053434250664 -5.549679258302335 
C -1.85041399 -1.57407257 -0.12239824 51.08982621876494 -69.08044856379053 3.7247647019997494 
C -0.46460454 -1.52792106 -0.08580773 25.795162853940962 -13.382052173001266 36.7020827736485 
O 0.0124862 2.15357767 -0.32202022 -70.6284181721347 1.4028891465830788 -5.591760489781224 
O 2.1319523 0.92380833 0.10275653 6.521897173915518 -26.92111416749191 6.287961955315446 
O 2.35263494 -1.31369523 0.27390367 23.565924824501757 37.06460605489426 -4.76738244150446 
16
Properties=species:S:1:pos:R:3:forces:R:3 energy=-310690.54450131615
H 1.01506592 2.09044281 -0.0051478 -28.03367874724837 -11.184430504305151 -5.69775036074283 
H -2.54783664 1.72910178 -0.30918114 -2.0981870164798306 3.2730890228323286 -5.764261877422724 
H -3.72028622 -0.3567874 -0.41067089 -9.671442616834172 -12.977808149874761 0.32136936182527764 
H -2.37448561 -2.55882925 0.34818269 -1.4321777406117955 11.365173348220166 -14.283170630305454 
H 0.03396413 -2.32300591 0.68826343 20.228491965862627 -33.83683674081895 7.045031615169035 
H 3.35612537 -1.12338467 -0.11023211 -47.876528664741706 0.5907084535911195 4.519856527889889 
C 1.67094552 -0.16961144 0.11003183 6.312688695778089 69.19338853190595 7.870229065788964 
C 0.15717524 -0.24055514 0.15681994 45.63415055228569 -48.62345125389997 3.2070802942761714 
C -0.57675984 0.91676021 -0.06758182 0.6903707834483404 58.432889051742116 -13.844365852777278 
C -1.98906925 0.79051912 -0.22286558 13.452188744620459 22.453948411984385 -2.963292088600324 
C -2.64632678 -0.42909621 -0.24369096 13.594711390384152 11.366853656643126 7.563623175993222 
C -1.90551677 -1.58496218 0.05532704 18.98145883689064 -29.374729697896 29.39582308267202 
C -0.51404236 -1.50082857 0.32019418 -37.851516901384265 53.33417872326346 -24.63351951270993 
O 0.00233445 2.17792471 -0.21388004 -1.5056618850453978 -36.81356181023458 13.07821398952817 
O 2.27935328 0.95835684 0.17608782 -24.708327033431484 -54.00707880523299 -5.275880293580421 
O 2.34158089 -1.31143011 -0.05610508 34.28346200814912 -3.19233223792024 -0.5389876828248329 
16
Properties=species:S:1:pos:R:3:forces:R:3 energy=-310674.6323801207
H 0.96107646 1.79511617 -0.33696985 28.600438358983382 24.64096528306121 -2.4625957531896083 
H -2.37538612 1.87536696 0.13052071 -17.416613809233016 -8.412717292343212 8.446581969790559 
H -3.66086597 -0.71603536 0.10238915 -26.756037205422857 23.586577083848454 2.07055264281105 
H -2.34711662 -2.48117999 -0.52872555 1.0472993609964865 -7.180881645903796 11.862494836932404 
H 0.16062432 -2.28128597 0.19500472 7.896873278883875 -28.074026308357205 -14.62956437367606 
H 3.1943013 -1.38823572 0.31670514 -25.39318849229755 14.234014790462854 0.6054031479999561 
C 1.64259657 -0.17018019 0.09806685 -22.45602597045794 -29.151827358313028 4.79539864955023 
C 0.22205434 -0.25751423 0.03182928 -45.4925374312647 37.19857893091235 -12.783134280304886 
C -0.54497174 0.97863102 -0.05081491 -16.600700151586523 -15.962366753123899 8.757581326563765 
C -1.93325682 0.86395805 0.18353509 -19.57188743671477 -18.6611223251969 -26.324751719150846 
C -2.62122481 -0.43731069 0.04585598 36.148278256847036 54.45133243047006 3.2426335808938074 
C -1.86347991 -1.55657393 -0.18730559 37.644554368308995 -11.695649815682943 -10.26154630169155 
C -0.45032575 -1.44736208 -0.10534194 -24.558021844139287 -20.488299428056305 20.709953098077268 
O 0.04037465 2.17406462 -0.28320408 -19.315281691346772 -27.308443639210438 8.848372529171751 
O 2.18879157 0.88775155 -0.08954653 55.542798882166316 43.97876334443987 -8.214909297747303 
O 2.19196991 -1.33947681 0.36852892 50.68005271209837 -31.154898482828102 5.337528758148418 
16
Properties=species:S:1:pos:R:3:forces:R:3 energy=-310681.8201976047
H 1.07537846 1.93941651 -0.01661908 -34.372091458989246 -9.70339456493344 -13.27540179971673 
H -2.55603455 1.71298711 -0.10742548 -35.291848651503095 52.931661255580735 -1.6042735774553765 
H -3.76481373 -0.312932 0.19060497 -6.1844042033203115 -19.538667845916745 -10.132852700972716 
H -2.17403513 -2.68611743 0.0213261 -15.196071405528157 10.850573261038663 7.867807619211911 
H 0.16513207 -2.4441779 0.18157838 -11.035937249572084 21.445532123104247 -12.928698557052977 
H 3.33561028 -1.08797794 0.4203096 -8.133515726933219 10.61175601718995 -2.220822257471848 
C 1.69410594 -0.14814968 0.0910613 -73.46243323606129 67.93534979780094 14.189094703398526 
C 0.14960624 -0.2450943 -0.05163656 64.83538116119641 -42.2024449204459 -0.48906343094406834 
C -0.60621007 0.93309318 -0.14365821 7.434933132737526 10.787253974616082 -17.05344188387479 
C -2.03430242 0.82101476 -0.13417531 33.95720943525415 -64.97531871707864 -0.16843046398869768 
C -2.70499396 -0.44291398 -0.06873278 61.372820465725425 14.64052254596722 24.96501104298855 
C -1.84881999 -1.6249812 0.05780734 -21.01701552897593 5.113850891600996 -26.3848348999374 
C -0.45433205 -1.51390506 -0.02785053 -4.91735915836676 -11.534354436931332 26.962509994405895 
O 0.05254483 2.08466349 -0.31871303 -2.028340971017041 14.63659154919791 18.364391953076822 
O 2.17032601 0.99580056 0.26493832 24.39312156940617 -10.627266556478814 -5.7359895320309 
O 2.38133572 -1.23204998 0.21843191 19.645549454305357 -50.37164437431188 -2.355006209636207 
16
Properties=species:S:1:pos:R:3:forces:R:3 energy=-310683.2232014576
H 1.00429126 1.95109093 -0.0141661 -12.231153556273012 16.89331572467508 5.376935963167338 
H -2.45006424 1.87004054 -0.09783779 -6.072112879317341 -17.04658072329946 0.8963621290864814 
H -3.5687937 -0.47769615 0.106146 -90.1761385759208 2.627179413703301 6.012734076232441 
H -2.41421508 -2.43276944 0.05555512 -8.450173821740556 -26.777210040208992 2.2815208793815573 
H 0.07369821 -2.41736644 -0.19250191 6.924992136447915 3.5681438298136348 4.106313296116349 
H 3.111033 -1.14270347 0.05822225 34.96199236844767 0.006306196325548231 -0.4858427409816408 
C 1.59166896 -0.15739537 -0.04013734 0.046598023845194306 -94.14918337372073 19.065232350545145 
C 0.16133982 -0.19705026 -0.00508048 4.5185129926441485 -63.80760634373135 -24.116458846856837 
C -0.56979522 0.96649968 -0.11047966 1.2592909611301664 51.3860265288772 40.62180119898511 
C -1.9561168 0.86598088 -0.08081032 -14.84129746482159 41.64618338243599 3.431804054986649 
C -2.56271459 -0.36166578 0.1001769 34.29620839857848 45.01490650103041 -15.98131024434252 
C -1.861019 -1.51885863 0.07321063 38.66875037785557 -29.565901837915423 -7.360751725528553 
C -0.48284186 -1.48124737 -0.06072709 1.5747608632488619 12.239397384188624 7.56640748381052 
O 0.01983965 2.19773441 0.10777115 11.58640723759065 -36.56739721918145 -27.52817746495704 
O 2.31552234 0.78341444 -0.12990803 36.789301097443236 87.1561405248745 -9.7228230569601 
O 2.1951491 -1.40032106 0.12046758 -38.855939344979625 7.376280052133112 -4.163749724327002 
16
Properties=species:S:1:pos:R:3:forces:R:3 energy=-310678.27276440687
H 0.98412668 2.00060748 -0.05817891 -27.367305424319042 -5.307915249152947 1.2161472339935695 
H -2.42181893 1.89272418 -0.23793111 6.3343643186879595 -26.122232457537 -5.584949133689845 
H -3.74300419 -0.26789513 -0.57921824 7.0019744529688355 -0.7768372966995627 7.096932630734398 
H -2.522583 -2.47443254 -0.39391044 -9.742604923658632 -27.3466851821406 3.1384366713545826 
H 0.06400972 -2.43718526 0.30892521 2.9785536054694113 -13.337314702378107 -2.759838400001798 
H 3.46298782 -0.91520028 -0.1340542 -59.49410402271986 -19.52901644841888 32.48153815029703 
C 1.68055521 -0.17375821 0.20215176 -31.314585888240593 -72.20226713899876 -7.002597009018275 
C 0.15033285 -0.26902046 0.12743846 37.03837332170251 -78.08467355311022 22.18711614591095 
C -0.57079072 0.91911917 -0.00167882 -3.5225810277420777 -22.504894841607275 -13.239901875046188 
C -1.94423421 0.85607489 -0.21064038 -36.60563639046952 57.67338727292206 11.229422926453317 
C -2.66960517 -0.28835829 -0.29085062 11.496952455302127 -71.64508540385673 -9.757200009099558 
C -1.97113585 -1.58945419 -0.16609052 45.78319639962645 67.23923133973997 11.158392245765024 
C -0.54284361 -1.5565893 0.12802599 -47.682520040778954 42.509338964755955 -18.609577055945508 
O -0.05131092 2.09739032 -0.09362065 53.78760348847454 54.39246353043517 3.4237772323225584 
O 2.16876541 0.90764383 0.04622239 43.130252652044774 73.92683040341609 -6.304074891695955 
O 2.55010056 -1.28859192 0.2752528 8.178067023652071 41.11566957680979 -28.6736248623343 
16
Properties=species:S:1:pos:R:3:forces:R:3 energy=-310666.9667090128
H 0.93276482 2.12549544 0.20429962 65.82209692492471 -15.933660397229035 10.450413205596478 
H -2.50319893 1.77720654 -0.30169333 -13.270256522195753 1.7266823266275027 -13.272197711248955 
H -3.45938118 -0.34020051 -0.81312334 -16.51276322023758 -23.86529957755564 -0.9873549212723819 
H -2.27772868 -2.56720569 -0.22488362 -2.1911814745923057 -16.462080042887024 -8.239188983675398 
H 0.24904901 -2.3157114 0.18377201 -7.231749811337613 -10.103115866588404 6.451821079169697 
H 2.89195602 -1.28976027 -0.30672994 69.34862910839388 -7.785173679583135 -36.08384548446174 
C 1.65165205 -0.11422179 0.1993092 -92.06027540693013 -68.56294202922393 9.71784379438564 
C 0.19296625 -0.21333638 0.30994543 -54.13323237727012 0.8659979953685447 7.602640245887828 
C -0.6240009 0.99358396 0.16807073 74.27798996157277 -8.730302699208949 -31.146670070586097 
C -1.94514979 0.84319752 -0.25290497 14.657550936195664 -11.361735653006223 24.457428644760526 
C -2.44987037 -0.46451655 -0.42421274 -40.75794175587628 79.27531377639252 -7.749141321262694 
C -1.76218957 -1.61804887 -0.19387043 -21.37273101159346 -15.201663737583681 4.056922663706531 
C -0.46415059 -1.48503206 0.16571041 71.20790875862546 17.678821373224913 12.646990165950582 
O 0.02755004 2.19311941 0.01141778 -111.66324795655915 7.490045351696943 5.075617649418159 
O 2.12035338 0.9164913 -0.17406521 82.22466535276962 36.704967876254756 -9.231530282448517 
O 2.16847848 -1.40015455 0.26293634 -18.34546269171076 34.26414379747979 26.25025132608035 
16
Properties=species:S:1:pos:R:3:forces:R:3 energy=-310666.5221495801
H 0.72597895 2.15078445 -0.40995131 67.07014511671255 9.558851280106426 1.0654602103243864 
H -2.49863091 1.71611778 -0.36782151 14.860654807585458 -24.59769348725159 -2.8020180546275504 
H -3.67502666 -0.39785601 0.11701308 -72.0958989911233 -3.3949439935757164 4.336451515725369 
H -2.26560167 -2.65877715 0.12292961 12.430992862321657 28.193961434826228 2.089668078081422 
H 0.05146638 -2.30083022 -0.19844014 54.42721994530953 -77.23454540080765 -2.9006499059953197 
H 3.32184707 -1.13164295 0.30566023 -36.3211377624446 -0.7946850892711734 3.8432092514132616 
C 1.68009822 -0.15313197 0.10810254 30.538908324524556 47.243216032590176 25.600748679180278 
C 0.22174421 -0.26201772 -0.1352294 22.43519465213321 47.699533015333785 23.145889222498358 
C -0.57811431 0.93280578 -0.13026112 45.955011196882 8.508484200062517 -38.013125336892166 
C -1.89053181 0.7452396 -0.29192998 -153.95655760051795 3.166487268210702 46.14178038335558 
C -2.65277346 -0.45192142 0.08238362 135.33957864959987 25.316374562365244 -43.66706435324919 
C -1.81865928 -1.60348353 0.07729289 -71.58197956522253 -19.40363958916724 10.215407190591371 
C -0.46890253 -1.44939419 -0.04532522 -15.266908797385863 23.747385090149933 -3.344406672213885 
O -0.20407554 2.23042637 -0.32819433 -27.47271187132575 -20.63309647858728 13.213167539551739 
O 2.28824606 0.94349197 0.32866934 -35.07750556823411 -44.96408576843846 -26.44542679795292 
O 2.32300827 -1.32592954 0.27814157 28.71499460118526 -2.4116030765459033 -12.479092135611785 
16
Properties=species:S:1:pos:R:3:forces:R:3 energy=-310677.01791084826
H 1.01622672 1.98288444 -0.00329471 -41.83136001124405 -0.9477093662231051 -9.147223149323063 
H -2.60272086 1.67135903 -0.25872481 -11.228294024817002 32.1522297165651 -15.159323997116646 
H -3.64490472 -0.63315707 -0.7880364 7.8598460167053785 11.798377492945493 16.560913483832707 
H -2.1514554 -2.53464176 -0.08996768 -33.77539460911305 -56.0394515678083 3.916018663671378 
H 0.12729266 -2.4244052 0.57946837 -14.523140492211413 30.822018356103975 -22.264579905776774 
H 3.27695721 -1.12190918 0.35966179 52.45662253015419 18.615763484345354 7.947295575604191 
C 1.65756519 -0.11978785 0.06996178 -2.2715137355697297 -26.717941518481418 19.064326383265584 
C 0.17501997 -0.23299645 0.0913012 35.698534280164445 -33.47409408267957 13.539162789279606 
C -0.6252151 0.9158673 0.02726945 21.603289011852958 41.4946733989605 -47.11102188814191 
C -2.01203995 0.78533464 -0.26089165 1.7348514478171797 13.694048805274617 22.249921971820378 
C -2.6492039 -0.41937288 -0.32053842 31.78967086068794 -71.24852194364873 12.087849454439645 
C -1.82969566 -1.57001925 0.11522183 -14.177419109374203 54.15633098543585 -42.02939686930195 
C -0.45901995 -1.49028308 0.22271393 18.667568448405945 -19.147537817744027 31.67568262676736 
O -0.03668108 2.13662056 -0.17419785 15.748808683387727 -19.915658143930408 25.966247185431836 
O 2.20886638 0.98513017 0.07773444 17.10392110000534 -1.3981766937440925 -2.3848533253778483 
O 2.38898007 -1.32925115 0.15040944 -84.85599158267271 26.155647708807706 -14.911017813253446 
16