16
Properties=species:S:1:pos:R:3:forces:R:3 energy=-310685.7103039334
H 0.95544926 2.01762533 0.04552364 13.008781795610625 -2.4225043294268294 -6.450235636430461 
H -2.4860972 1.80530782 -0.21539152 -8.238584214941657 -5.663642589980939 6.716064697898517 
H -3.71974852 -0.5845711 -0.27395225 -8.454325381224526 11.468147676260399 -4.556238703419063 
H -2.34692228 -2.60437463 -0.03401977 4.607833777154416 11.266792890914266 6.736285318384272 
H 0.079141 -2.41238959 0.47266862 -9.099829439555633 30.115318816844653 -15.982550613157212 
H 3.29443905 -1.14230297 0.69299065 -41.47665603397923 7.574085675086926 -19.956988750686833 
C 1.65492491 -0.14389862 -0.00580516 35.88973962317317 13.59567427707395 31.09552442302739 
C 0.13830295 -0.25340021 -0.13844548 79.78135697890214 -32.14699431664459 34.0487714215424 
C -0.57214266 0.93031043 -0.11025971 -31.854287435335447 30.54671814193713 -0.7047749517007725 
C -1.99464671 0.82448911 -0.08200893 -9.156470181844051 4.669109893913795 -27.546526859831342 
C -2.6419569 -0.42452191 -0.2080586 25.756487300507764 2.1914779298539435 19.06352358241707 
C -1.85942539 -1.59985414 -0.01508454 -33.011785146187755 -3.284062610797094 -4.104380407810473 
C -0.50759745 -1.47397273 0.16164444 31.48467413005237 -43.990837374335825 -9.06942261628002 
O -0.0169313 2.15627397 -0.07861871 -16.88591975880775 -6.061449976466772 -1.4644842492039796 
O 2.28741266 0.95438727 -0.04429947 -30.047734132117633 -45.313535372646015 -2.235799177289763 
O 2.33611886 -1.31972927 0.37840769 -2.303284253048874 27.455701268412998 -5.588767477459733 
16
Properties=species:S:1:pos:R:3:forces:R:3 energy=-310685.8689717584
H 0.94967909 2.10431705 -0.17288001 -0.6538830698460238 -19.767675978068404 2.7838655060469764 
H -2.65911715 1.80514015 -0.23483206 19.374126874960726 -26.56212581878591 3.8214826381983893 
H -3.64015781 -0.43565219 -0.21162723 -28.52153145490391 -17.663403327977683 2.6568937174877285 
H -2.10531765 -2.64322064 0.21516892 -13.735799192681519 18.16721481527768 -10.672932524981418 
H 0.08523761 -2.50656236 0.07814925 25.405638427465274 -6.303662225971756 5.294157353370884 
H 3.25243698 -1.0773402 0.53944772 -31.675064814002113 2.306085162360823 -8.5640209429566 
C 1.59631 -0.07782258 0.10841318 40.585040746542084 -51.549674576585176 -8.11681106585048 
C 0.19025234 -0.30067838 -0.10984022 -5.618466365570557 56.08217551429442 12.501645266096103 
C -0.65237749 0.91442797 -0.15187127 89.01938793232783 16.84454646249365 6.95929438186144 
C -2.01476016 0.86322624 -0.14723721 -54.17865999574237 -26.302613626032823 -11.139592238893036 
C -2.57584956 -0.46277303 -0.12084129 32.42142176652118 36.65760262619244 4.186151069717361 
C -1.74500372 -1.59882925 0.0140798 -58.114613497027285 -28.261547305374293 8.318478907952905 
C -0.38421367 -1.53854392 0.03431603 -9.3907054131689 -2.369317883847008 -10.392195321316146 
O -0.04188592 2.13208047 -0.11167216 -28.015594976288494 3.055886925020112 -7.164811399080962 
O 2.21545443 0.97020086 0.02102784 10.87010610531742 23.51889397597457 3.5937231756087455 
O 2.2785109 -1.27674393 0.35722471 12.228596926096655 22.147614075208306 5.934671476738112 
16
Properties=species:S:1:pos:R:3:forces:R:3 energy=-310667.4759431562
H 0.90111949 2.01953912 -0.24723973 24.71953185650032 9.978499118627601 7.763836015671529 
H -2.64021392 1.64465119 -0.50647534 13.28435000533399 23.89200308170288 1.4363909627901845 
H -3.61425971 -0.15952655 -0.25718966 13.358142463239696 -35.88520978677535 -3.994099050481405 
H -2.43887806 -2.45243271 -0.23801424 0.6373254505730586 -28.859084902372494 5.218567190758609 
H -0.07986473 -2.51143867 0.52776111 29.263088203826545 -9.37880214150364 10.465168376878687 
H 2.994905 -1.22423668 -0.52238373 2.3521566816613486 -2.5233951698882753 5.777003524567895 
C 1.63582207 -0.08596172 0.20058047 31.456845281731955 -41.31003631872862 -7.769371428316822 
C 0.2159285 -0.23956598 0.38457242 -56.58160776446951 5.577010061783199 -16.008103870889297 
C -0.55733124 0.89407035 -0.06371744 15.899279887626438 47.34885015723781 14.881553717709842 
C -1.9317242 0.8565106 -0.27094527 12.46386026426886 1.7449665013442435 8.330988134172951 
C -2.49810272 -0.3511396 -0.18302648 -65.05701467225958 -38.070876007680155 -15.664818164481702 
C -1.80525802 -1.59961931 -0.08578575 -3.0410783917908066 56.2801815410051 34.694147411200476 
C -0.48657272 -1.52462242 0.40019534 -23.00915575508392 18.275731670889485 -40.63683978149745 
O -0.06378854 2.15178864 -0.24083728 5.38959104537611 -22.21780519459564 -2.708023949372834 
O 2.35599532 0.92429573 0.20197828 -20.84626915648332 -19.20835976504258 -5.528055811518512 
O 2.08883528 -1.36805258 -0.1694404 19.710955785769865 34.356327153996425 3.741654351165749 
16
Properties=species:S:1:pos:R:3:forces:R:3 energy=-310681.50599899446
H 0.95247091 1.86082553 0.06492852 -13.865135508407585 24.45889076211092 -11.865587458221803 
H -2.68736744 1.80732977 -0.26716 20.792981916114545 -21.440261148552334 1.4984461639771467 
H -3.62321108 -0.47646637 -0.37064399 -51.255369208505286 -7.375575674431463 -1.0445956890103543 
H -2.52877557 -2.45613392 -0.16553434 -6.36115675941369 -46.438490596517866 -0.6430162057754477 
H 0.22833697 -2.5387578 -0.13188522 -35.436580481876504 48.50115278608518 -1.2396419063888473 
H 3.26945465 -0.95779073 0.5933935 40.45747011835434 14.059431101063613 3.432740853613423 
C 1.66874325 -0.12333467 0.17260785 -16.886006323744148 -2.3370991260122684 -20.449734155980433 
C 0.13782625 -0.22696072 -0.01837601 51.921861113539265 -101.56966016207977 5.250213197027866 
C -0.62635159 0.91841128 -0.05201078 -19.47639208201512 66.91373057738853 -14.098040248518204 
C -2.03539844 0.87933873 -0.17786663 -20.539081028553728 -41.05549034451848 3.3704342583645923 
C -2.59505505 -0.43985094 -0.17773533 38.553754196045425 60.74257318097922 2.314224638024336 
C -1.86724477 -1.63816276 -0.08341049 9.8753421741462 36.494208344188436 -18.559001788310187 
C -0.4848452 -1.57193951 -0.14479529 53.54086614585593 -4.211853740901314 29.56498875570958 
O -0.0415523 2.13489563 -0.08134307 27.910035558366783 -20.739411264515642 16.276591543143716 
O 2.28738574 0.94603296 0.02975001 -13.843744482548885 1.1128100447130926 12.08781743727139 
O 2.38603579 -1.25377738 0.43059341 -65.38884416153648 -7.114954738999851 -5.895839394926768 
16
Properties=species:S:1:pos:R:3:forces:R:3 energy=-310669.300308332
H 0.8862373 2.02950778 0.034768 -2.4300366647145095 13.976798347255883 -9.358302853071946 
H -2.33273315 1.76586227 0.89143785 -10.01093132425072 5.585653511391496 -10.122447121289245 
H -3.68792385 -0.34544075 0.23887224 10.472392398694264 -8.203696173931137 5.312172346710058 
H -2.25334859 -2.48130811 -0.20774205 -14.457383157717127 1.1632762168121302 0.03348521471245411 
H 0.03503639 -2.38978575 -0.19344183 27.064785873849708 -24.624461025735343 -9.981653402611423 
H 2.95399705 -1.5195359 0.69788514 7.290342415068652 16.204491251871435 -8.694537150623981 
C 1.67652877 -0.16612775 -0.06997295 34.86113235933343 37.788682615769716 -23.825253214992628 
C 0.16141774 -0.23648661 -0.24664318 92.54447104247812 33.08873425971937 7.294077751365282 
C -0.60341013 0.86783804 0.02824512 0.39603339820019656 124.40449548003677 3.661159632704948 
C -1.94821103 0.87965362 0.38164574 15.601787032573428 -13.156052468844699 -3.913938733555731 
C -2.57323723 -0.32285563 0.16145387 -47.2661770855145 -16.106381161764148 4.578081527096498 
C -1.83543704 -1.47159328 -0.13640859 21.104645332673815 -18.640500897197413 -13.307985790433806 
C -0.42072602 -1.43916515 -0.28672904 -97.50147219843102 -37.14814477598156 16.839909902201644 
O -0.0970418 2.19322362 -0.01929483 20.934226246790054 -53.47765121168544 12.37084683301964 
O 2.47317268 0.81146759 -0.26689132 -59.26082456315853 -54.826011563264004 23.003748411111655 
O 2.06172723 -1.40175876 0.32055052 0.6570088941247274 -6.029231218632033 6.110635461835536 
16
Properties=species:S:1:pos:R:3:forces:R:3 energy=-310682.6173101781
H 0.89598763 2.08418322 -0.12382979 37.55674906309622 -8.759861660436279 13.378878915880698 
H -2.5650512 1.7778594 -0.34060711 -9.816978433877145 -21.58890263091622 -20.07128411225847 
H -3.61825496 -0.80869694 -0.81818971 30.78984940275319 14.330266698990199 21.48504486619631 
H -2.29929922 -2.60536219 0.23647413 0.73889813813627 -10.942225369726447 -10.853146492709676 
H 0.20388503 -2.35989032 0.5460093 -17.066137283999147 19.326486514415617 0.7397531151108321 
H 3.25584435 -1.21395424 -0.10366202 -9.844330582136848 14.776890780499322 8.256880247868864 
C 1.65578664 -0.07167361 0.31177851 8.129039252482496 -9.683343516857338 -22.68736068350293 
C 0.16298237 -0.22698373 0.23036489 -5.7803724421611395 43.28215751392876 -19.95141302012596 
C -0.64754162 0.96777185 -0.17392509 32.09898397993295 -33.612765181684075 18.753316354102957 
C -2.04335631 0.78587282 -0.4097069 21.42982710916375 -16.698010998308437 13.343384920315392 
C -2.54817821 -0.58550932 -0.42138084 -45.56390014184603 52.73111282854625 -16.497487473515935 
C -1.79309319 -1.66876879 -0.0040338 -9.497641569325653 2.5129670596049225 6.38598785212843 
C -0.46606049 -1.47079497 0.31268533 45.509144855021624 -30.026863681698366 8.593300050416943 
O -0.04008132 2.17704614 -0.29934604 -60.06933276836932 -6.468563686525924 -6.913398364075803 
O 2.28259328 0.98921137 0.41299932 -12.864470931708736 -7.904888243337502 -0.006082076147750449 
O 2.28060466 -1.26538268 0.04018682 -5.749328832983531 -1.2744564264944827 6.043624714495047 
16
Properties=species:S:1:pos:R:3:forces:R:3 energy=-310685.07569757255
H 1.03612177 2.01806938 0.28540606 -9.135093385837912 -3.103011453409974 -16.711780752300964 
H -2.36389608 1.99708446 -0.29241639 -1.4014199143064043 -24.669562543419794 4.489427174014392 
H -3.65253582 -0.16236203 -0.14438819 13.77415813189529 -18.581132766501934 -8.378383029761427 
H -2.56679859 -2.4970738 -0.0652705 19.982553866629384 23.73922545552863 9.642757605718149 
H -0.00321386 -2.59853438 0.31413925 -8.60897779047337 26.114831748385487 -3.086593761020502 
H 3.22668785 -1.24797187 -0.41754078 -23.801839178428516 9.491693490956163 9.46847274322264 
C 1.60407111 -0.18637615 0.00337974 18.936602784162826 -20.2912124126567 10.128609833268163 
C 0.17619675 -0.30850966 0.16953899 -37.166827386569935 -30.66366974265304 7.168360561473284 
C -0.54407672 0.94255068 0.09258755 47.47545789873577 29.507774076034632 -25.79346950148649 
C -1.91287068 0.97581124 -0.13033324 -10.880499826790425 -24.10394606317365 4.842087981616008 
C -2.5315984 -0.28905821 -0.13329569 -44.78116457126093 26.59355719144574 8.515212548680637 
C -1.90522088 -1.56729264 0.04634158 -61.66027297397729 -0.270708715074606 -13.248657977653906 
C -0.56322551 -1.61393212 0.21554016 70.36702645302283 29.437324447659147 -4.028780758629827 
O 0.08441181 2.16511213 -0.0394924 -7.126746543486735 -27.378842277280917 25.792944182762866 
O 2.1894294 0.89507389 0.04764812 23.50629581317603 5.824817014985801 -0.4232811942078023 
O 2.25961589 -1.36693467 -0.18596455 10.520745437688351 -1.6471374508249874 -8.376925655695217 
16
Properties=species:S:1:pos:R:3:forces:R:3 energy=-310679.56307941815
H 0.99435008 1.93854843 -0.17057844 7.523249526821365 -3.487706030763068 1.9548473400150659 
H -2.36997228 1.83104768 0.17613164 -25.645845453580545 37.97014525305999 3.240149285801287 
H -3.69419388 -0.40720983 0.43520399 19.72544058985346 9.247513964334953 -11.408720254512591 
H -2.51203397 -2.4023196 0.20661619 -27.36257518416436 -59.95949609393271 8.365916493099055 
H -0.08842208 -2.47155302 -0.07774651 25.634691620816703 -39.63276241182663 1.2899064889099714 
H 3.21207303 -0.82698394 0.56395951 74.983362567081 30.54889412355755 27.794471368275342 
C 1.64416325 -0.1650952 0.05731219 16.661716573536708 -21.679608454408857 5.8131224478247345 
C 0.24759318 -0.32229637 -0.28725309 -87.77535848806676 -32.32415716682008 16.37796857023425 
C -0.58138594 0.87610253 -0.27740911 56.23801018712667 29.523352207123146 10.776675265059817 
C -1.95973154 0.88408429 -0.00966127 14.720665075577195 -56.19942949937719 -14.383049965414193 
C -2.60397578 -0.34667657 0.11770124 -51.1179289917471 35.25752150384759 24.92460774829053 
C -1.93565857 -1.55548663 0.09746397 11.601151736483443 42.647578424899514 -18.381816407534817 
C -0.60023403 -1.55433397 -0.1045023 75.54371518770152 51.43177076156889 -11.93187841218704 
O 0.01953315 2.10086755 -0.31049337 -26.826086026284607 -13.353879436577351 -4.6811957820202235 
O 2.15014352 0.93819562 0.28540729 8.793795115504329 19.152303632530106 -5.6674194300141965 
O 2.45671502 -1.25264094 0.25874648 -92.69800285083798 -29.14204077721586 -34.08358594164803 
16
Properties=species:S:1:pos:R:3:forces:R:3 energy=-310678.42664927366
H 0.88063961 2.11230156 -0.06387953 -5.762108426402191 -2.5870773175511026 3.029396868661251 
H -2.26704796 1.78373926 -0.81300332 -27.15205163048631 3.31524140357401 -0.17239110628417173 
H -3.62929234 -0.53334453 -0.4915264 -8.436095754275925 6.8112707122628064 -7.330897494860632 
H -2.39384901 -2.52547211 -0.28200291 21.729877780214167 33.81808535260987 27.248331998718772 
H -0.10315255 -2.51133294 0.4648221 21.438158687836804 9.001491671807408 0.774866462120198 
H 3.23735483 -1.19432265 0.25557757 -8.263212532257436 -4.276837920073252 -12.645031189581683 
C 1.68382318 -0.16889745 0.13875204 -11.354380005054479 -0.10903861687228489 -2.4544266319999317 
C 0.2180254 -0.28516732 0.32797023 -19.102117314198054 71.12758835585852 -20.82888146247777 
C -0.63068782 0.97427964 0.0165431 44.817188628834046 -59.34858717881363 -1.2286090273717543 
C -1.96003776 0.83217167 -0.38248857 29.50844050746279 31.534484543112665 17.316941992807426 
C -2.57375329 -0.3809381 -0.25488646 -40.65777426625322 -1.6433843272126596 -20.16583673922611 
C -1.87185019 -1.51761248 0.01879191 20.22939081821591 -64.61594616235355 0.9823934460136203 
C -0.47508267 -1.48273686 0.33351308 -49.72563989949913 -33.49872002835326 -13.933986650012322 
O -0.1213327 2.194371 -0.09065167 28.086767955502374 6.371578940591811 1.5346350506757327 
O 2.31136073 0.88807907 -0.02098427 -10.59258840579353 -1.814332289283181 8.764808905842484 
O 2.28996933 -1.37884967 0.02147113 15.236145041975238 5.914182860695837 19.10868676279594 
16
Properties=species:S:1:pos:R:3:forces:R:3 energy=-310674.7367211429
H 0.87027239 2.20680122 -0.44041764 0.3192230257310237 -18.421426387952696 11.848219923174046 
H -2.37383516 1.8067562 -0.07380839 -13.450592629491805 12.343571763127963 3.1202082302270293 
H -3.73013325 -0.38983297 -0.17509252 21.376954906161266 6.871438086343662 -20.095522294449935 
H -2.55578562 -2.47701914 -0.13100458 5.7967794621611946 -17.0689536089847 4.071153702086168 
H 0.04298483 -2.51855723 0.18841585 -10.382074338683852 38.398049963528294 -5.942328323235681 
H 3.3493582 -1.07132199 0.4648661 -37.119862944021364 6.361059522087874 -5.895085212741163 
C 1.60557778 -0.16264302 0.05088118 117.10564835642228 10.449342409191443 -11.588251189318036 
C 0.21241579 -0.28044773 0.00636597 -41.50111715052745 -49.35823103554158 14.444029626911936 
C -0.54598187 0.87328915 0.03686914 31.621481118371698 90.6924936782512 -15.765658014638142 
C -1.91391007 0.83201395 0.00738009 -35.6576566570478 -9.465077737566368 -32.74961315682725 
C -2.59807069 -0.36211091 -0.30245589 -33.43509598592171 9.14778760014122 67.77689208881372 
C -1.95121014 -1.57860114 -0.05487015 61.25765352568457 24.183037955336385 -23.209522751498277 
C -0.49951447 -1.50089748 0.05360329 -29.694671331181237 -66.733509494734 4.370419359603769 
O -0.00961382 2.18119091 0.01317513 -22.488875585089446 -29.346162083063593 0.5357124450942642 
O 2.20321678 0.87506123 -0.31762285 -9.764509410030486 -22.348080680590577 11.57830926566377 
O 2.35497151 -1.26646529 0.46681209 -3.9832819908947843 14.294657678783377 -2.49896488468727 
16
Properties=species:S:1:pos:R:3:forces:R:3 energy=-310681.7560344748
H 0.96999591 2.07753989 -0.44737173 -13.31512206149194 -3.318098046475147 1.4831099403821268 
H -2.25927079 1.84897728 0.05882239 -37.5097146571059 11.407430081213946 7.135291569948168 
H -3.56377903 -0.46497301 0.40969777 -61.40814014559689 1.8785622862695142 9.234249370108255 
H -2.34310759 -2.51222043 0.04761719 -28.795696838329206 -44.351648329990375 3.56234516489601 
H 0.02708128 -2.45680033 -0.03932689 27.28590236693659 -33.197812008686185 2.100083144333263 
H 3.19877061 -0.85781585 0.43328524 5.482533327362538 -12.074025152678976 -2.486637089087346 
C 1.59881101 -0.12708195 0.19883901 2.487341466788996 -16.34892781280426 -32.65445338948378 
C 0.17074878 -0.31806857 -0.09645912 24.698157432136274 37.255964368817985 1.991151251355167 
C -0.54742142 0.91134675 -0.24445427 -15.197560796762623 -0.6423284295684493 4.243314759087308 
C -1.94105068 0.81976128 0.05993931 53.30241057742641 26.409443058295388 -30.931422205858603 
C -2.56248646 -0.40446192 0.14695871 5.910024186285589 29.058351456855657 6.346711087424629 
C -1.87814937 -1.57937333 0.04626876 40.03215168358856 4.066474452236484 -12.200360155336227 
C -0.5019313 -1.54724109 -0.05697836 -7.337847592014455 26.83581331632945 4.765065347179502 
O -0.02803105 2.14343838 -0.59084211 3.019061252419529 -36.91556732247979 20.820853453992633 
O 2.20359618 0.93851347 0.32724735 -9.364837912859478 22.57131386424554 2.821676595937242 
O 2.32418869 -1.24773437 0.19385087 10.711337711216004 -12.634946967401827 13.769022340942685 
16
Properties=species:S:1:pos:R:3:forces:R:3 energy=-310685.7536827917
H 0.9731024 1.84207469 -0.20472535 15.15248180967806 18.10673438444054 -1.357946528918867 
H -2.57077868 1.75231537 -0.04738429 -16.877052189021654 32.028836735924344 -2.8733096159460834 
H -3.69414847 -0.58219118 0.2343915 13.6947591120815 23.302799435019832 -10.388173016326252 
H -2.46692869 -2.42331888 -0.18262252 -17.923291426002525 -49.49205568392883 -1.0572673727137782 
H 0.07055064 -2.37301339 -0.33538804 26.49213866061858 -42.26605710466698 -0.8031886119959774 
H 3.27370273 -0.99559067 0.25947663 -49.7419200366472 -19.440359723694684 8.316218733038182 
C 1.63524951 -0.14215777 0.08788952 33.176394894764464 24.175590999164054 -1.8576432171873414 
C 0.21402128 -0.29858557 0.03243043 -33.65493772138355 41.28347155564382 -11.105305409153113 
C -0.55882924 0.92198396 -0.06366906 -52.408195970255235 -16.38017182573874 -11.885408457014872 
C -2.02078588 0.84962899 -0.09833262 65.11130748887584 1.1623311174380306 18.528468082182595 
C -2.59748624 -0.36766569 0.04731962 -55.55586070099405 -35.099826277793305 12.150745402748612 
C -1.89607653 -1.56670934 -0.0105124 76.94915622117676 32.82955291103826 -8.140952010716129 
C -0.47232517 -1.5133285 -0.08456237 -58.45123488915328 11.06998810092374 9.115580700516945 
O -0.00532478 2.10354773 -0.21260682 13.713489155511745 2.767879452518448 6.0159452796264965 
O 2.29186384 0.94236722 -0.05790588 -31.508675148034524 -32.7532903878926 3.630467026557117 
O 2.26728697 -1.28189194 0.3550865 71.83144073878508 8.704576311604066 -8.288232170518574 
16
Properties=species:S:1:pos:R:3:forces:R:3 energy=-310671.96431929345
H 0.98072256 1.82382361 -0.03388899 9.263769199241048 12.329123719496808 4.1068160842400845 
H -2.56427753 1.81347755 -0.26123018 -19.448163612002023 42.13837738094295 -3.470617163661249 
H -3.53229286 -0.50291239 -0.02167875 -120.65447278974554 -7.827802760385529 -0.25856827920003606 
H -2.37524439 -2.47097226 -0.15951901 4.196382333706987 8.013873498262692 19.283626198509143 
H 0.27152628 -2.4323408 -0.16621715 -21.86619383862022 7.854550139911492 6.50810963260729 
H 3.22624721 -1.07267715 0.28788893 34.087877428015496 16.91541705734066 9.808821170897934 
C 1.55691934 -0.17741579 0.14195677 80.15096435507998 21.031621286806274 -0.6670385685364398 
C 0.14899565 -0.34025761 -0.04197131 16.695046445692064 92.18139754026676 -9.001648200185553 
C -0.62378588 0.90495978 -0.1644011 61.968554428911816 31.897796395354383 15.842383007991966 
C -1.99850654 0.94118994 -0.13702099 6.148886491334072 -33.48504158258132 -9.696022315487042 
C -2.56737989 -0.2843258 -0.06867922 104.78812433840282 -76.35325624304384 28.52995078433441 
C -1.80103112 -1.5477197 0.12105267 -43.454304341077346 8.356221220222471 -57.68755309114413 
C -0.43052375 -1.55496842 -0.06495865 -13.589006405329204 -57.20091703588235 12.774695977737641 
O 0.02159829 2.09963006 -0.20747385 -9.245646296186639 -27.02156151088195 -0.5739278999614027 
O 2.17138856 0.90543109 0.3902618 -29.089634601884665 -19.545907283405924 -8.340769971985935 
O 2.34862857 -1.28090282 0.00025002 -59.95218313553865 -19.283893008244615 -7.158256180335639 
16
Properties=species:S:1:pos:R:3:forces:R:3 energy=-310676.5086203708
H 0.94779589 1.95859386 0.05969519 -8.969843293896059 22.181981540779393 -2.970586073857647 
H -2.50480249 1.76261793 -0.2495213 26.14888259973715 -3.095381880796477 13.308291732263816 
H -3.6415838 -0.00405625 -0.57958707 -17.713550514215196 -23.91624837882062 4.234979622951115 
H -2.45204958 -2.5154345 -0.36549598 4.367236615914831 6.494215367404873 3.5545804086832056 
H -0.1096814 -2.55171064 0.27039329 10.104111956267504 6.980911899540031 -5.343996226136297 
H 3.18329587 -1.0592127 -0.18197793 45.22667753844944 -2.4293714191073956 -8.63223411283829 
C 1.65970117 -0.15766139 0.05969532 8.473159776906865 -50.302349735635744 10.915540838715952 
C 0.24384028 -0.35855226 0.13221044 -45.12282570283475 37.65429351656431 4.255015255353609 
C -0.51867697 0.87687451 0.048661 15.872425784206285 46.58484937336715 17.36763940001054 
C -1.8849806 0.84194913 -0.04242431 -64.06902177926416 25.577488799352217 -18.461586589336175 
C -2.65705139 -0.28859156 -0.20992416 47.08331873685244 -32.22289160690792 -16.332874167476078 
C -1.93358451 -1.5456052 -0.20711635 -2.0402359419349754 16.345205520539142 20.062008620032362 
C -0.53299528 -1.54380042 0.11062623 -31.6056029745584 -16.71709204476846 -15.618175079436735 
O -0.04900333 2.19327733 0.11421615 30.763639200161318 -67.08296265640469 -6.143550296624601 
O 2.1604017 0.92533632 -0.24647745 19.5826309753965 -4.745436451395975 5.497112997129859 
O 2.39825231 -1.33397725 0.2794986 -38.101002977188784 38.69278697046912 -5.692168701076724 
16
Properties=species:S:1:pos:R:3:forces:R:3 energy=-310666.1166494088
H 0.7938335 2.05883936 -0.78441185 -36.90273911039822 20.45298330564798 11.708123467271593 
H -2.39088571 1.59804646 0.50031523 -42.39816586999988 74.4207580722931 16.93426212541242 
H -3.57907971 -0.377973 0.65743463 -3.7682914493343818 -10.996776695330844 -11.846090188574445 
H -2.16465874 -2.61793588 0.22190238 -6.928542484661281 8.954397974764756 -10.393064528143269 
H 0.15853712 -2.32912482 -0.19498576 -20.240296814381022 21.60098851902265 3.5545875236094853 
H 3.07154424 -1.12569523 0.77892211 64.20281678212525 9.773799132109152 27.649901995385303 
C 1.70572174 -0.1330596 0.11498353 -7.232913101784278 -6.938834225524282 6.549998761076639 
C 0.23320874 -0.23966058 -0.19680318 33.91040270690476 51.779480766301155 -0.1361049822597686 
C -0.53924079 0.93729066 -0.21346893 -67.82118606236547 -3.9178495713672503 -9.090932224243376 
C -1.94948154 0.77115174 0.10868589 67.14588469277668 -23.054442260851634 -27.569649184418 
C -2.59231136 -0.42375437 0.16006022 -16.493823286482098 -6.603710525380081 34.15437827230597 
C -1.82505778 -1.58522057 -0.00234102 -51.483515248756106 -22.621723116934344 7.741433484460124 
C -0.51440185 -1.39482836 -0.16324638 95.52368515027047 -90.92421734059945 -3.4742434044215957 
O -0.2237381 2.1737363 -0.60596949 76.02918558087453 -11.547926158809085 2.0019185064578333 
O 2.31878867 0.93831652 0.30679779 -19.9184092487584 -34.91831739348222 -15.2994714433241 
O 2.27848539 -1.38373895 0.36914681 -63.624091050209515 24.541388332319343 -32.485048180594816 
16
Properties=species:S:1:pos:R:3:forces:R:3 energy=-310672.8188397186
H 1.20646948 1.91480784 -0.30382308 -54.35707625876406 -6.9733783784313035 28.439063530221652 
H -2.35580342 1.84929675 0.12456326 -28.11887880362188 16.771388418847852 1.0427778253459945 
H -3.67923526 -0.5258641 0.04060336 -14.528135170459478 20.120464854343044 0.34684791283143207 
H -2.30447799 -2.50030884 -0.07324116 -24.045524217673314 -17.75802473256602 4.033805082404055 
H 0.0686363 -2.32424141 0.07893046 17.720248031486108 -35.926144329302225 -9.07919852498777 
H 3.12276894 -1.10918555 0.36741028 -28.799513996278048 -22.470609197688404 -14.120229331941234 
C 1.62208002 -0.19330224 -0.0363038 -21.23171198691679 47.19206327010517 -1.2553243897294593 
C 0.1696619 -0.23495193 -0.12642078 16.8911610878335 -40.553050852169335 11.868850837741906 
C -0.55344483 0.90988644 0.09330574 29.594916507282388 85.63115924333873 -50.13648301674968 
C -1.98011131 0.84618258 0.08664013 61.23203979107911 68.65466410135345 13.261949845764677 
C -2.60642074 -0.32899517 0.03025475 -59.34449135291885 -41.82131492115874 -0.32196108652750566 
C -1.91084002 -1.50652186 -0.02808618 70.92754508858987 -24.808064070014634 -12.446140540370276 
C -0.51108354 -1.46202532 -0.11976536 -27.18031093184662 16.096222232858363 15.732800099259313 
O 0.15525669 2.12979281 -0.04015952 -20.300172476484423 -32.24858360570245 1.3251004717505028 
O 2.25497077 0.90694497 0.0059306 11.054632904191974 -46.51964225983845 -7.152927100552446 
O 2.16930538 -1.38845339 0.0948412 70.48527297032157 14.612849040203903 18.461068385538837 
16
Properties=species:S:1:pos:R:3:forces:R:3 energy=-310673.76958647574
H 0.88993639 2.10390068 0.45906403 20.273747640283126 -1.9439520162393726 -7.837244267558154 
H -2.38906463 1.93085338 -0.12106046 5.6090355307873505 -21.127079881053476 1.755043608597818 
H -3.66285334 -0.39395567 -0.41455544 -11.561259530656484 9.088183491057473 3.6683706104890126 
H -2.5440261 -2.40440061 0.05593322 -3.3910841460691987 -32.85342586034739 -5.107892140842087 
H 0.13498264 -2.30931837 0.12076764 20.32449603779124 -43.81790079037024 3.918948827477401 
H 2.96365147 -1.4514398 -0.68843603 28.717903420212444 6.494317348014879 -9.42050153860554 
C 1.66014981 -0.17240616 -0.023055 21.156515516891965 41.835931351378505 11.32992363179045 
C 0.20600379 -0.22373343 0.17832466 41.07554139259457 -117.60569130443635 2.120442505881465 
C -0.52088647 0.86834987 0.14946182 -59.927154010709124 149.91985555729718 -23.921374683204856 
C -1.93048197 0.90616761 -0.01399675 -12.801910570755943 -2.7644381998413623 -5.7909357360438 
C -2.60990652 -0.30597587 -0.14621036 12.693892945804738 -5.542273805866635 2.4782841656354537 
C -1.91501344 -1.54658859 -0.01521699 48.17065497384357 51.607237887647806 13.262792964528773 
C -0.49372392 -1.47208009 0.15045411 -53.308790294656845 21.086001854179973 -8.544556876298541 
O 0.03124257 2.12359271 0.00779163 -24.94034477939928 -4.862561181984678 17.64621959519214 
O 2.26467664 0.94781028 -0.06702613 -7.926964673761106 -80.80710759984072 -1.8424670794336055 
O 2.20071304 -1.45151185 -0.11369001 -24.164278266379977 31.2929019645834 6.284946412394072 
16
Properties=species:S:1:pos:R:3:forces:R:3 energy=-310677.00205594226
H 1.00419987 2.15113316 -0.18330084 -3.007018053870776 -16.86119894745034 0.9782561163822104 
H -2.59946242 1.66163917 -0.13309623 -56.21885087647758 80.61314522289878 -0.44662052404598207 
H -3.59122616 -0.68411141 0.16194477 -25.809278867679083 11.507616543973741 -2.0946888443925107 
H -2.32676978 -2.47673133 -0.28913227 0.481500264309178 -23.30272354247285 6.11080977752938 
H 0.33100664 -2.29134664 -0.19924995 -8.490172751461706 -9.154087867361536 0.07010099698779791 
H 3.21749659 -1.14412949 0.69978707 -81.16961902287602 -17.397792457582195 -25.636013811283604 
C 1.57236409 -0.12382807 0.19991672 37.17381542999725 -65.64722745265324 -8.227158829158157 
C 0.17923656 -0.22452609 -0.10898036 3.761826352988596 35.69249845103751 12.690935508114643 
C -0.59333038 0.97128845 -0.1449158 -0.2280725193459323 30.00536830358757 -18.009538562360138 
C -2.02673326 0.83810923 -0.08864399 85.95864507012209 -64.09124999478173 6.817955185502203 
C -2.55152304 -0.45444147 0.01070926 -9.579233172254513 37.12846844735617 -2.9633762818946288 
C -1.77943221 -1.56280912 -0.1185355 33.26967987903335 -37.38669521009479 -10.691495367644098 
C -0.38514158 -1.46343754 -0.16090752 -28.694293723175655 -35.75520348215798 -1.4415647000162783 
O 0.02514968 2.20172777 -0.33852862 -37.92396938150736 -20.451053974805244 12.202378422757452 
O 2.23011833 0.88748364 0.2372413 25.219476381367528 37.67800638003215 7.5709669657345025 
O 2.18639256 -1.39790731 0.40653427 65.25556380500959 57.422128394652944 23.0690563194293 
16
Properties=species:S:1:pos:R:3:forces:R:3 energy=-310685.34370249766
H 0.86323312 2.22978838 -0.16099712 25.308590833015693 -11.266861668534967 4.3644143618240445 
H -2.41010122 1.86024362 -0.55366002 2.607277779079067 -45.91657992258439 18.402714131838152 
H -3.74226046 -0.56783812 -0.2827077 39.063736696071665 10.411785085005139 5.183236838497725 
H -2.33793945 -2.63418257 -0.33019126 -1.0817581347881575 4.930214644332399 9.520207743841484 
H 0.15505115 -2.43770545 0.25418052 -14.96528217016458 10.49723890708261 -9.494607053267535 
H 3.28595964 -0.91906609 0.29526107 13.138503503176821 -3.040753476824052 2.7623203234522253 
C 1.66400574 -0.0852171 0.16514127 -21.185596592237538 -50.31949433632674 23.657382458537903 
C 0.1521995 -0.29528073 0.11391899 40.15683365170692 7.027052196461257 -10.488054723077086 
C -0.58119476 0.87251188 -0.12573201 12.700452907834249 72.44888352787063 1.944345708826827 
C -1.96262461 0.81670765 -0.26234131 -35.496294872317584 6.4141084124262955 -6.38063387010326 
C -2.58829623 -0.45798241 -0.14691388 -57.77025343675152 27.320949307967346 -37.20277199413294 
C -1.86039316 -1.65409427 -0.1440477 -21.52424810999522 -4.817835569571986 6.758458986133695 
C -0.5220332 -1.55396771 0.07073855 76.35954346623267 -9.595375754161186 11.556473556912612 
O -0.10014779 2.20739352 -0.20038137 -34.182810703539076 -47.09096846842373 -2.089729740775842 
O 2.26779012 0.97322698 0.17797864 -2.9834629046021246 21.62791021424246 -9.680878194901563 
O 2.37337191 -1.25565361 0.31860968 -20.14523309854232 11.369728086859963 -8.812878533606444 
16