16
Properties=species:S:1:pos:R:3:forces:R:3 energy=-310684.8471709282
H 1.07375579 2.03452264 0.05415208 -35.036862737684686 -19.00654962441457 -11.028907702408139 
H -2.57439105 1.78751774 -0.2989151 -2.6492072254639973 -5.602207573201321 3.0980227042671418 
H -3.72619296 -0.47460609 0.09127785 -27.92946405039345 4.577320229984614 -6.565185571219794 
H -2.26917733 -2.6112583 -0.04452371 -21.573118166965607 -21.843286147642985 8.452483801139234 
H 0.04240721 -2.35299975 0.39927701 4.578072040528125 0.5848860722525633 -10.811512315765336 
H 3.29404809 -1.00388923 0.39053886 -35.390086810283414 -14.971052375377088 -1.4334750288367202 
C 1.70722888 -0.14054578 0.02273339 -79.21297753561753 -13.049391423170746 36.88003656646203 
C 0.16228803 -0.28540826 -0.04331803 56.85248130866958 73.28646569350072 -14.716441181009387 
C -0.574436 0.94053854 -0.20638002 -19.27646265356694 -29.9957880553525 16.169923382543484 
C -2.03876903 0.82221538 -0.23231337 43.9741967475896 35.090722729618946 3.021814728889616 
C -2.67022544 -0.39723734 -0.07164741 23.671914695463364 -31.909760143893017 -6.929961912454002 
C -1.91375662 -1.6073308 -0.00692963 34.08832211090795 54.271618879223446 5.441838320687065 
C -0.51261279 -1.44462707 0.10072142 -29.43197402309712 -80.02824966407783 3.0531085463080476 
O 0.0431572 2.10418086 -0.12162084 11.65386503946569 31.73756706972362 -5.391297441862093 
O 2.29369056 0.92629287 0.12530761 16.993072920216022 30.376738995661643 -13.464221270779793 
O 2.3090552 -1.27980025 0.2872154 58.68822952605345 -13.519034662835478 -5.776224440140312 
16
Properties=species:S:1:pos:R:3:forces:R:3 energy=-310680.1381520589
H 0.96500029 1.97137651 0.2608821 16.225367631395933 3.6112828136660453 -8.646232730292803 
H -2.44802027 1.82415265 -0.26292846 -22.040611513072946 8.571300698361362 -3.3301934211499478 
H -3.71758679 -0.50725021 -0.25222789 -7.137833970271969 17.85343826561346 -1.5827153508291136 
H -2.38218233 -2.70450513 -0.029596 -1.1484072067094508 29.776559389371734 -5.868228737678919 
H 0.11437154 -2.39503679 -0.04743889 -18.272133889834254 17.201354086295048 3.275262632810653 
H 3.40861068 -0.97704702 0.37775956 -40.655228308466285 0.21214812851182413 -7.845597191010047 
C 1.63774559 -0.18467697 0.07241935 30.83089422663739 0.33999979628761084 6.6904545207561945 
C 0.09911939 -0.27068507 0.1299876 58.8064380970787 25.56218340710441 -36.58755854861487 
C -0.54608249 1.02044367 -0.07271147 -50.249913914778375 -100.56808961810135 25.841862858396162 
C -1.96320959 0.85814974 -0.21694527 12.11690562754324 2.9270818571228996 0.6329213112061751 
C -2.62923093 -0.38162164 -0.19648427 -1.6944469672981113 -31.015206391902527 3.0844521682104338 
C -1.95731481 -1.65410548 -0.08087007 4.771469966651915 26.1526618114125 -5.38044362182303 
C -0.58346378 -1.49167104 -0.0366184 46.85828429102777 -41.86238701892701 16.948269043614257 
O 0.0021101 2.16596196 0.13644771 12.157030254295321 42.19841668635078 -1.4254695509514672 
O 2.28073402 0.85827453 -0.17258544 -32.37533245990495 9.069609976005376 8.764017963204434 
O 2.43346159 -1.26918176 0.33443822 -8.192484235936012 -10.0303527013511 5.429198654151897 
16
Properties=species:S:1:pos:R:3:forces:R:3 energy=-310692.07047913317
H 1.08349801 1.8896104 0.10586258 -9.144658218399377 -0.08086350880627774 -9.693778742066971 
H -2.54175422 1.83273042 0.39608989 16.201478080592153 -17.090559268452825 -16.45350537089943 
H -3.72290091 -0.33703223 -0.03956493 6.629122670407629 10.40289498461916 3.42577652660704 
H -2.46155144 -2.55093936 -0.07601234 -6.25428463759345 12.792785677802751 -2.02370559654608 
H -0.05781718 -2.57313864 0.12483545 -0.5469623293628757 21.596828658791352 -6.202389551133321 
H 3.29312619 -1.06003928 0.13212017 11.362429358318453 0.7003850421864478 -1.31033225643678 
C 1.6674289 -0.19313586 -0.07747245 -54.42991768819043 -11.919134393399776 26.113293738488114 
C 0.18217597 -0.33340465 0.00045692 -4.233406038422344 20.613531617140264 -13.247142498356418 
C -0.54233004 0.97322526 0.01213869 3.4570252828257027 -66.81743242184037 9.396893027389794 
C -1.95716575 0.89742029 0.10670315 5.437597824624605 71.50545260398349 12.675539993467297 
C -2.61225572 -0.26341983 -0.02786063 -36.22795831624886 -96.41149632379027 -4.730139359895492 
C -1.95594375 -1.56360194 -0.08011758 11.93887475636168 26.23014217277297 6.053035390320459 
C -0.56209943 -1.56912587 0.01117873 11.714819798721457 -1.152998705801689 -0.5364606981746367 
O 0.07311339 2.1143948 0.04066819 10.413333767291933 28.004959347322 6.21683996640657 
O 2.18090806 0.93154119 -0.08165916 33.420336071355315 2.669954350494421 -3.358519128488867 
O 2.36238392 -1.32934932 0.04176052 0.2621708035394523 -1.044449833021629 -6.325405440681282 
16
Properties=species:S:1:pos:R:3:forces:R:3 energy=-310669.162088532
H 0.99897222 2.11975113 -0.17920403 -47.38041434185485 -19.463680080396117 -0.7739178052829586 
H -2.5369077 1.71124892 -0.2302846 -9.080041643751867 9.923580188498773 -2.3415068228422915 
H -3.67015887 -0.44231984 -0.18071383 -9.509011221519964 5.640530937783696 7.5117245320699535 
H -2.16307698 -2.61454802 0.19597263 -54.06617894037195 -94.62177219286508 9.457598764225782 
H 0.05517337 -2.48021565 0.1125526 18.085022001078222 5.148346425845111 -0.6526533734207524 
H 3.30789871 -1.1239318 0.30236805 38.41869036466452 17.492431649486228 4.010443221965992 
C 1.66003107 -0.105588 0.20103485 -16.092153680847655 -27.260349109204498 -21.856420301554564 
C 0.09286517 -0.25518944 0.11560398 100.91447861818777 2.1446961037465337 -22.992913564209335 
C -0.62867124 0.96265068 -0.14554559 109.83036231118166 -24.983787333439608 24.31540285801534 
C -1.92934778 0.8173899 -0.12622 -119.96928285844957 -5.571947791735481 -12.208809130292888 
C -2.58287803 -0.42256688 -0.06668012 -19.230018786457798 -30.88535187237912 -4.785991531187955 
C -1.9302862 -1.66548049 -0.00756625 115.70614710056918 128.3466697985319 -18.106735570261584 
C -0.45380813 -1.51914603 -0.01219664 -76.94689130297786 -16.017641429566694 27.052765205900844 
O -0.05370656 2.1367383 -0.29350868 45.701372375772465 36.50632150617894 0.8084643298320744 
O 2.24845122 0.97456183 0.17561331 -2.5446569412529008 5.543865177711104 6.68832952944078 
O 2.39042871 -1.29073705 0.14782848 -73.83742305396942 8.058089207625368 3.8742184717805217 
16
Properties=species:S:1:pos:R:3:forces:R:3 energy=-310687.8485091775
H 0.87325097 2.04715959 -0.13764021 9.487336784431143 -3.8729781029658312 2.0628163463033635 
H -2.54109234 1.73867283 -0.11481346 -28.897877852089298 37.50080321194108 -4.700712024804328 
H -3.70351142 -0.56659423 -0.10178138 33.569020243276874 8.106208639873286 -5.664734731164811 
H -2.42244428 -2.53716128 0.08453173 11.869409359454831 -5.54488024052695 -4.7444510341062935 
H 0.17924224 -2.46468111 0.25355379 13.05798743993718 -4.989027810778096 -2.0079863527530253 
H 3.26393657 -1.20823896 0.54955258 8.990993598082309 19.871831383870997 0.5750105545769021 
C 1.66023246 -0.10930984 0.20539013 8.121582809741795 49.68191393422868 -1.580436202777646 
C 0.18578806 -0.2556158 -0.07697099 23.277428793728912 -33.05502848229226 8.997925907920434 
C -0.65820668 0.87877832 -0.23863639 64.18780784513908 58.82051379290123 2.687618340803817 
C -2.04187201 0.83205462 -0.28055545 32.18973012134117 -24.719048041513332 5.083215204863399 
C -2.55911874 -0.4161539 -0.19828129 -60.90084708770422 -72.90364827086432 8.45246127053935 
C -1.79653848 -1.64755538 -0.09710269 1.015843086094678 34.59129403690699 4.735858574802998 
C -0.38112981 -1.57095616 0.00067343 -50.59380320409868 24.43145560637796 -2.37804196928647 
O -0.10346596 2.15405028 -0.25488386 -18.926339503004943 -30.271796204684136 -1.5678107660950376 
O 2.2760392 0.98346736 0.22355782 -22.583616757603487 -15.35433226822165 -7.829305195651507 
O 2.29811459 -1.23113145 0.51234284 -23.864655676727363 -42.29328118425366 -2.1214279231711473 
16
Properties=species:S:1:pos:R:3:forces:R:3 energy=-310681.25286790566
H 0.70435811 1.97621857 -0.52339914 42.09030893900003 7.744836790863719 -4.584257283106926 
H -2.41050986 1.81593225 -0.29646261 -6.61386826846482 6.8472437795309204 4.86440276206997 
H -3.66032318 -0.36252289 -0.38675058 -25.837833438479983 2.316901036126397 -9.431516630306932 
H -2.46370744 -2.38627384 -0.35714638 -15.391363087863285 -51.46916088498762 -1.4129947135417704 
H 0.11085955 -2.40578496 0.0770009 -6.432160166217913 2.0707767629888476 -4.102975209870313 
H 3.3141894 -1.08534477 0.27724483 -28.84907894438171 -4.404656384859735 4.607186318863 
C 1.65821991 -0.13793201 0.05404025 16.50572181486317 -78.40158067033734 26.32796648000804 
C 0.21807102 -0.26921013 0.11993804 -42.10008959099197 8.18588751345406 11.497164717269458 
C -0.57869521 0.91805207 0.16322958 4.982518839053588 -27.72768118364951 -38.901244823884085 
C -1.94014486 0.85944603 -0.06414639 -30.987456993592232 7.752689297833969 5.782486761087138 
C -2.60439587 -0.32180028 -0.22272109 17.940573581934935 -31.782870176985984 19.71257561731945 
C -1.89066446 -1.54991721 -0.10414979 9.773168275312388 59.55388837660268 -6.979063204528462 
C -0.51183473 -1.48860212 0.03093022 26.758886733397713 -20.44659054438603 9.608588172261836 
O -0.1144201 2.12755482 -0.05087389 12.056655245989123 43.735839602306946 13.511064759581624 
O 2.29349739 0.81578924 -0.29704628 16.280518982449887 58.0673431126487 -19.721894984924283 
O 2.339035 -1.29547446 0.44132344 9.82349926381212 17.957132387028945 -10.77748873829775 
16
Properties=species:S:1:pos:R:3:forces:R:3 energy=-310674.82457498496
H 1.02290712 1.67829471 -0.50749971 -14.857447161654543 32.76355366905048 29.755607117300254 
H -2.51714825 1.83892692 0.0229756 0.14524529088656923 -9.210206848389472 -5.8628036063909565 
H -3.72099228 -0.33573115 -0.32397078 -7.446249422984744 -9.296051991412302 20.026481421477747 
H -2.35077921 -2.51338813 0.12364314 -20.879154345746223 -33.6432028363069 -6.6011681250562795 
H 0.18987293 -2.46165472 0.11241162 -22.968097887168202 23.260383802005816 -2.2785634416914644 
H 3.32185337 -1.00431755 0.24182357 34.90360609757873 24.53418091199842 -0.6028228014026652 
C 1.60742401 -0.11822686 0.19509244 5.572683000784342 -46.4671732359918 -30.764686280145416 
C 0.17271828 -0.26751183 -0.08598508 4.1551430351711485 -64.14037737491921 16.07295286646193 
C -0.60218341 0.89058582 -0.20701359 -1.123037751239579 19.996188437022603 32.836902629884776 
C -2.00305558 0.85623967 -0.05405474 -2.2437809387540852 8.05483768631573 -4.944669802889833 
C -2.66225248 -0.37603231 -0.02271941 19.15931420655731 -0.6355206309402107 -36.48081212382557 
C -1.89559406 -1.58391458 -0.10266284 34.98583211476749 30.282115219431212 25.76759844371393 
C -0.47345132 -1.5329972 -0.00292129 -6.482571790548809 -9.927029741923183 -6.805195751041334 
O 0.07326239 2.02503464 -0.2148622 5.8657705306494226 16.908229795977526 -36.36594993979369 
O 2.17870256 0.93684545 0.12489329 35.802664783725064 82.49662036576414 -7.873951358054081 
O 2.39940145 -1.18543591 0.32122131 -64.5899197620239 -64.97654959932495 14.121080751452656 
16
Properties=species:S:1:pos:R:3:forces:R:3 energy=-310672.98392677284
H 0.91488588 2.20705572 -0.27159618 -22.068781877854768 -9.193209289508237 7.663094588661949 
H -2.55255828 1.75350051 -0.52695917 -6.161995743003672 -9.577322814548522 13.588253408964645 
H -3.70296509 -0.35007109 -0.35380677 15.183744795749279 -18.170022839515912 3.3827537532171914 
H -2.30975683 -2.60082599 0.29919547 -14.934804197626175 -20.334691727149472 -4.721540971486965 
H 0.26754216 -2.33607816 0.18475057 8.560974568688014 -27.367088419067528 4.585909131824769 
H 3.22021036 -0.97116859 0.3954049 52.31590233238126 1.5358007127644906 3.2142177511553505 
C 1.67771624 -0.18256701 0.11169101 -65.76735586795286 -76.86848007209585 -14.027941623172502 
C 0.18725188 -0.24532351 0.06998404 -30.172703068929263 21.701638637811644 8.31767966456753 
C -0.67783564 1.03630524 -0.0069926 120.41154667597053 -16.340286734838056 -11.582011398971092 
C -2.03120184 0.84523351 -0.13941063 -2.511670957201044 35.987203440810084 -28.30159248211626 
C -2.59205682 -0.41044201 -0.18057319 -15.356332748327178 -55.52029199870282 24.75620100072276 
C -1.83863017 -1.66027797 0.1001361 -2.798920690053964 73.69971721329681 -19.767253825775832 
C -0.43804983 -1.53643807 0.11112624 -16.972718301952007 53.10511011423843 7.403036918227447 
O -0.08352232 2.33053566 -0.15081941 -15.957011585277682 -58.847486478426035 6.005635751447799 
O 2.24216568 0.83323717 -0.12657776 55.15430256253799 75.62842787162488 -3.1456583215280673 
O 2.39175793 -1.40259127 0.24511011 -58.924175897148466 30.56098119748502 2.629215468440226 
16
Properties=species:S:1:pos:R:3:forces:R:3 energy=-310672.5442043809
H 0.97575323 1.92543336 -0.34961467 -47.99562185826768 30.53264718939878 17.31719575851139 
H -2.46915286 1.8024121 -0.86171708 10.090484500800562 -33.494164103892416 17.397792457582195 
H -3.64681504 -0.61272306 -0.35940139 -16.628065343877736 2.55694204729515 -0.5500585081154156 
H -2.19316791 -2.66296722 0.05891696 -17.052031942650448 -8.799792998357773 2.6316736754697225 
H 0.2772115 -2.35136133 0.52543623 -26.586208658420276 12.742126216873123 -5.458266685465956 
H 3.1801743 -0.72641677 0.34483088 -8.72229247803951 -26.86655335531914 -14.979164577156531 
C 1.58536846 -0.1081344 0.2925832 -23.372341910294704 -18.698772143424836 -22.7996010172009 
C 0.17117223 -0.27184798 0.10741089 -11.283861599058296 17.322614960694118 8.802870203973571 
C -0.55007331 0.8865059 -0.25324921 -57.69681198187559 30.42858190599572 1.9485672317525415 
C -1.95571757 0.84058346 -0.48776859 -26.342508203501875 -61.46378954149039 17.87803100829784 
C -2.58697252 -0.46908609 -0.19115859 42.511379762777075 30.522425411977522 -39.51368226233217 
C -1.79157363 -1.6589181 0.0153797 -26.361390032026073 32.76655972540348 13.751670221568533 
C -0.45970385 -1.51395819 0.28554785 52.59831865864845 -16.852874483703566 -10.82103683041122 
O -0.08438753 2.14532102 -0.31060615 91.46417621086141 -29.174408948502464 -15.754829096841055 
O 2.21853043 0.90748561 0.45591211 11.683617289523609 88.88580637725512 13.058913566174535 
O 2.30413334 -1.1648516 0.06874326 53.69315758540108 -50.40734707438138 17.089924854192923 
16
Properties=species:S:1:pos:R:3:forces:R:3 energy=-310682.2184150529
H 0.98712461 1.92798883 -0.57591686 -31.604019903461264 0.5245265951621664 15.615770234354333 
H -2.50467052 1.8081814 -0.19901123 -4.745021414029684 0.031230968902964232 -0.903882606163696 
H -3.81748412 -0.22014117 -0.11790857 33.37986874232078 -20.081830804646476 12.463141656714651 
H -2.48116042 -2.55443748 0.18476833 -1.2177694371852488 -10.212977443266993 -2.4622589800123884 
H 0.05184805 -2.43267652 0.09395444 29.836387618633275 -41.94976661438408 6.939430693510696 
H 3.22368439 -1.05363761 0.22064511 57.09001430832489 6.9566215412225185 6.129682119485209 
C 1.69696183 -0.08252778 0.19056022 -5.862585415318391 5.686557395884453 -19.917630164330824 
C 0.16343173 -0.26237567 0.00992294 19.05412239316003 -15.235062387359738 7.912958941380316 
C -0.6338697 0.9125894 -0.20203099 87.26741204277744 -19.974051529725624 10.743503107103653 
C -1.97213397 0.8532097 -0.09145835 -74.31017907388136 -5.9733660033080564 -4.484311542019579 
C -2.67803555 -0.36602029 0.01454861 -2.199191695761745 -2.2476218131238577 -9.13365024162426 
C -1.94277285 -1.61403859 0.0933793 16.272942771783484 47.3764620003067 -0.5807013097792912 
C -0.50138771 -1.54796883 0.10203832 -49.97482714839991 67.72083714212229 -5.324580778141147 
O -0.02425998 2.05965932 -0.46877005 29.076296486753076 26.160419452699024 -11.613057379790796 
O 2.39030696 0.97561629 0.29963154 -47.82895945345939 -44.84778755511919 -8.930804879222613 
O 2.32452687 -1.29460049 0.10615525 -54.23449200807704 6.06580786881284 3.5463935001778304 
16
Properties=species:S:1:pos:R:3:forces:R:3 energy=-310685.2738945982
H 0.79149124 2.03593225 -0.11375077 97.72968464466045 -4.881478585140277 9.741895802672794 
H -2.70288103 1.7554891 -0.32081709 33.41897712043597 -43.90045409416785 11.096374990851551 
H -3.71261522 -0.63203307 -0.36307015 15.625234272126844 10.888946430104994 2.063536139678619 
H -2.20914453 -2.63836136 -0.22094672 -4.896747216935644 2.0545001833039143 -2.591310698687283 
H 0.23106095 -2.37688181 -0.02398614 6.379908147622771 -10.77546098430815 7.212135145406644 
H 3.2310288 -1.1678746 0.68695438 12.715177247769248 12.906963643090778 -3.860607617808231 
C 1.70642558 -0.0797009 0.08208027 -37.727088698969865 -33.03172235544338 55.49629098072066 
C 0.1639735 -0.21389658 0.13850079 34.819597791357 -22.049026099219255 -29.69475908193868 
C -0.65453479 0.92353417 -0.05994565 25.887226442531897 2.824170377598134 0.13269574675093987 
C -2.04102319 0.77246169 -0.14468392 -39.5221940858043 90.28251383872252 -16.980139170061314 
C -2.61306998 -0.44456504 -0.22440314 -14.12002418490018 -81.15732324444436 2.216510612146595 
C -1.7755161 -1.6294475 -0.14895348 -39.01735686329903 7.687507086547257 2.577463866326729 
C -0.42886498 -1.5198543 0.04541848 20.48714799582011 33.24523299233769 -2.5158462331059437 
O -0.10992636 2.13662906 -0.24255464 -94.88514779058782 14.383932216272827 -4.349322417364614 
O 2.32212162 0.9643918 0.04845138 8.341124532478853 24.131479642053478 -15.117859392581964 
O 2.29864 -1.26559793 0.45074432 -25.235520540127336 -2.609781047308332 -15.427059858827555 
16
Properties=species:S:1:pos:R:3:forces:R:3 energy=-310671.21841862286
H 0.61310824 2.4541622 0.29692345 72.24511203923164 -7.124392688709334 31.115229211357896 
H -2.52847653 1.6605138 -0.14279708 -30.01113850880008 56.7623778822686 -3.68474205585767 
H -3.6513391 -0.63632316 -0.19861438 -60.518744715158874 9.513137878761958 -3.251163191681635 
H -2.19946459 -2.62707673 -0.1278406 -8.109724599276303 -3.8069421005256037 2.7260934904801495 
H 0.10334109 -2.36902626 0.27321512 7.03929817040897 4.413022352343139 4.532218712300164 
H 3.12400563 -1.27584658 0.4230245 5.885578485410979 0.5982704344049631 -1.4134204232974814 
C 1.68305513 -0.10716809 0.13552245 38.635945824423835 -3.1602534069689936 -5.290612934262748 
C 0.23362406 -0.17886866 0.04682944 -50.29525852577737 -16.89297539403472 2.5431248604607593 
C -0.63111923 0.92832036 -0.17118822 130.44204523331035 42.05899496262381 32.024488330146646 
C -1.94868307 0.80881931 -0.23076426 -99.79760950803234 -59.96961233328082 -0.1730539802491927 
C -2.63805423 -0.41243803 -0.17587274 102.2627132727354 -47.09147362818956 -7.652748300030809 
C -1.79676311 -1.6135218 -0.08621249 -53.4083032110622 46.937638249641786 5.138427032790727 
C -0.47770913 -1.44113999 0.17051145 62.95279301247386 0.3257568996975094 -19.933141889440726 
O -0.16658894 2.2288183 -0.1349882 -87.85492826611123 -14.338748876936165 -48.03302265407584 
O 2.4790594 0.84147437 0.00758385 -34.89671291983514 -14.287572398030244 7.4639074841889075 
O 2.15866683 -1.38109373 0.32802662 5.42893658770061 6.062770981112628 3.8884186788129473 
16
Properties=species:S:1:pos:R:3:forces:R:3 energy=-310676.81326171564
H 0.83993165 2.0632814 0.24555342 18.080712727395063 1.6543934898088217 -6.4292798068958446 
H -2.5450101 1.76639607 -0.11998702 -0.6258668618002544 -13.649903059353688 -4.238582147290531 
H -3.57055676 -0.35605864 -0.20721484 -19.219250345534082 -16.946263820224544 16.38392257770897 
H -2.3394873 -2.56446843 0.0076308 13.439011901151204 14.930237600775914 7.476913569427458 
H 0.19607144 -2.42816738 0.01157503 6.872481608864625 1.1440872606368724 -6.705488359984345 
H 3.06586682 -1.36794975 0.31147742 36.30759924355615 10.049111204486463 7.757386334999349 
C 1.57932932 -0.06575843 0.13095126 36.514883134135026 -98.08245929108253 7.287007886285755 
C 0.18649665 -0.19843604 -0.10510585 -15.920246389550474 -30.77156759967854 -28.557232969152366 
C -0.56716496 0.96976471 -0.29937861 -11.526723678496786 -0.11776625977488642 50.426594135787916 
C -1.96667388 0.81017827 -0.13414227 35.8609846486154 85.18201647792674 -22.494067109631235 
C -2.50254934 -0.40525507 -0.01434295 -47.11671027170221 -25.346784943103998 -10.70381130503356 
C -1.77185094 -1.58952323 0.06381906 -17.791762527161392 -35.06142464902186 -31.056057926956143 
C -0.4060943 -1.52699341 -0.12223357 -2.060066427296416 28.19657854187596 32.58095145773447 
O -0.01136982 2.19248174 -0.22713896 -15.172306365934263 3.4510807619193518 -5.676821805092285 
O 2.24475151 0.89696529 0.40918987 17.829192968495718 39.866389316954596 3.4973016946717435 
O 2.13061528 -1.40185314 0.16295005 -35.47193455055832 35.50227496785533 -9.548735040758316 
16
Properties=species:S:1:pos:R:3:forces:R:3 energy=-310677.812595511
H 0.89559399 2.18116625 -0.10411325 -4.607545622640104 -11.037016346724444 -3.924472381912227 
H -2.4117184 1.71890717 -0.12404877 -31.05737063085467 44.64762689156694 -1.7987458574473394 
H -3.65099277 -0.56047049 -0.03540525 -40.80367413035749 9.49373547479832 -1.1877397050024388 
H -2.36409238 -2.44246884 0.58898308 4.953294279361385 4.181712541540128 -17.118003910754158 
H 0.00813693 -2.37918872 0.63351525 16.85168866265702 -8.923357923050286 -4.694127160532841 
H 3.27676013 -1.04838434 0.37691842 -45.94766859296177 -8.795738676199623 -10.737907217584986 
C 1.61958905 -0.15256034 0.12749999 43.74909233832318 38.83528234234874 -11.838748770475258 
C 0.19537583 -0.29958876 -0.01237444 -9.204804247701393 21.21613859911246 -21.76152497230447 
C -0.5730958 0.9086316 -0.29784871 84.78552653862361 16.179433667336806 42.10174025388877 
C -1.89014808 0.81549016 -0.13302354 -98.48221260990576 -66.61895443835317 -33.92975530638445 
C -2.60778608 -0.44780624 -0.15215716 53.57966621049901 57.03000702008532 24.354309646552615 
C -1.85019034 -1.54568413 0.15575232 -15.601667264647725 -52.94211663974816 7.707375518182187 
C -0.47201775 -1.52397252 0.17147087 6.187781421660883 16.96861061784676 18.333498943172124 
O -0.08822618 2.20562575 -0.28675472 7.798792834302752 -28.001732728254336 -7.528365158816177 
O 2.25488164 0.94019458 0.1115906 -25.230528233521365 -23.442431049072034 4.919356081009148 
O 2.28802347 -1.30092004 0.1966463 53.02962904716243 -8.791196981591339 17.1031099984095 
16
Properties=species:S:1:pos:R:3:forces:R:3 energy=-310666.09902221523
H 0.9290128 2.10877246 -0.12163472 121.12086806556377 -31.70641080754659 -3.716959627871363 
H -2.76461051 1.67794387 -0.27433886 26.645857828703793 -5.12259869346139 -6.7433978730214745 
H -3.63307767 -0.59032946 -0.83161088 18.012601538123374 7.907769788480617 18.60266964834936 
H -2.14317465 -2.65533098 -0.03488578 -14.403597872508797 7.560810408470808 -14.436442743856114 
H 0.06853239 -2.42790604 0.44847557 0.10650570311685596 14.944166254788682 8.571705063338236 
H 3.37593232 -1.12999721 -0.01886079 -47.42900691670035 3.510020811217029 12.506009087547401 
C 1.72361366 -0.18055245 0.16844722 -96.97365850732781 96.28649892727353 -44.78297176253587 
C 0.14241823 -0.23165125 0.39616079 37.382669347641766 21.95029108142044 -15.237988993702622 
C -0.64074303 0.97766112 0.07668984 60.33841690861016 6.479572849122086 -4.095083570805528 
C -2.01820724 0.83237358 -0.20573286 -30.92551918868888 0.7997817481292416 1.814264697483528 
C -2.60831439 -0.45883792 -0.35971476 9.235392501597127 -6.809794365059853 -7.64909478538639 
C -1.81725416 -1.59983971 -0.10008393 1.8907596415543182 -4.914570107265277 27.098803522212066 
C -0.49460869 -1.46434484 0.37692572 -5.271170212383529 -22.15574880758763 -21.067839819031022 
O 0.0362365 2.18964775 -0.08888581 -180.888323998471 -3.5117959853237135 15.22808975960603 
O 2.11369815 0.83706697 -0.43976579 25.078248652186666 -18.061706387660973 22.74478406768207 
O 2.40098277 -1.24147929 0.31638584 76.07995532316149 -67.15628671499701 11.163454515812742 
16
Properties=species:S:1:pos:R:3:forces:R:3 energy=-310682.1046969094
H 1.06233672 1.76771272 -0.01896787 32.13571834431295 3.869526177899327 3.898741251023158 
H -2.37810286 1.8664688 0.12900449 -28.777533617359214 42.93168217451594 -4.497331857110689 
H -3.78788811 -0.36147256 -0.07309837 6.638006841688374 3.5122335532898896 -1.325428944180397 
H -2.33103884 -2.43746228 0.1321666 -28.083103768468536 -30.09978100367172 -6.2477649934795245 
H 0.06930645 -2.38350101 -0.13189002 2.6958064351302387 -16.332717639097933 15.274087758001672 
H 3.22480477 -1.06532084 0.28781253 -33.090562795773145 -13.231301114995569 -25.92206112159532 
C 1.62057335 -0.23306641 -0.05186482 -11.919066801600124 67.20576865562741 29.391972721733875 
C 0.16103105 -0.27678158 0.09332066 21.67885782968639 -28.94435136472461 -22.575701402117772 
C -0.57166699 0.92405272 -0.00573801 44.066922024324505 32.963018255648414 6.297844587917386 
C -1.94301731 0.92852942 -0.02949265 -36.937413703620365 -63.219684569599636 -0.6909589506874287 
C -2.68113707 -0.31773699 -0.07071944 24.09072890178881 47.020268631807426 13.804932559695333 
C -1.92037475 -1.46660302 0.01871386 36.049802933857414 -23.50841368956517 12.723772078714639 
C -0.50186015 -1.49904662 0.13634171 -34.336750434338946 22.3720911851411 -31.123340227316294 
O 0.12920483 2.07733955 -0.03967069 -58.68160908715056 8.164861720477699 -1.5258196570156866 
O 2.20444005 0.88485547 0.04889924 13.481611336427436 -30.922508389051686 -8.538985889021852 
O 2.3081871 -1.34089802 -0.0976586 50.98858556109476 -21.780691397879846 21.056042085438907 
16
Properties=species:S:1:pos:R:3:forces:R:3 energy=-310674.99453098874
H 0.87385058 1.99741352 -0.09594403 -3.318624551019815 17.549555020940595 -14.057117564201794 
H -2.58384536 1.6613707 -0.18400614 -9.608214638632173 5.03277393500634 -0.9572137219111961 
H -3.72404175 -0.52658121 -0.11858859 -11.243477277497018 -7.15859888261809 10.779045721331867 
H -2.15594016 -2.61468132 0.18605925 -9.552560499454485 0.2410204993532022 -3.691015049193915 
H 0.32711417 -2.22237226 0.01692983 4.897330640890546 -32.492578144240404 -0.24883268840786785 
H 3.12573437 -1.26754313 0.8263289 26.679178214290776 24.21944740474963 20.124445655596308 
C 1.6233018 -0.10150527 0.07495398 59.40432076800143 -23.385262616417904 48.19968268724204 
C 0.15000225 -0.2158298 -0.12681325 73.9616318794902 9.374698014861535 0.958739873598105 
C -0.59552022 0.9569077 -0.12872861 -55.282059364630044 8.893975649158891 -35.44626152490054 
C -2.01259636 0.73575355 -0.08497163 13.803500087871102 42.988101168268656 0.3945191047237533 
C -2.64801616 -0.50331748 0.03358006 10.763031208098221 44.386252959770765 -17.741080535631884 
C -1.8134352 -1.57744463 0.0506975 37.31920064776732 -74.05550740264027 1.4928336729638296 
C -0.41052334 -1.45576922 -0.07426318 -44.60370289418171 -5.482777606498127 17.289267301223063 
O -0.0622762 2.16190293 -0.47315402 11.308028631986964 -23.043396337803024 39.19206150644503 
O 2.20576481 0.93501589 0.40729339 -20.206815157131704 15.520568963274233 -16.78097222454606 
O 2.40078695 -1.28744855 0.21798965 -84.32076769584961 -2.5882726251660237 -49.508102214330734 
16
Properties=species:S:1:pos:R:3:forces:R:3 energy=-310684.46022673405
H 1.01963569 2.05099365 0.00485582 -18.662755200778 -9.911940169105845 -6.172279183119347 
H -2.33883499 1.8439814 -0.4751431 -29.540805121286258 13.459316714931266 -1.9178532808258728 
H -3.67713017 -0.38405607 -0.24273021 5.700107772983371 4.718658240522804 -1.5604966218799226 
H -2.57078302 -2.42927222 -0.00384434 -4.336970905343757 -23.045910278421708 6.026663916066254 
H -0.01036699 -2.57496145 0.28581699 -1.5791353570895814 31.377038339478155 -6.130243012840228 
H 3.32735973 -1.17235939 -0.12774151 -4.013598691770859 12.478005923533145 3.9636519092902094 
C 1.65834986 -0.1460929 0.17287546 -46.92896871197048 -116.64069029571246 -30.580034970060975 
C 0.18223552 -0.30464226 0.11214597 -0.05506478611755504 5.921143630239081 9.909714383001473 
C -0.54800632 0.95241798 -0.04765973 -20.441106122045742 -54.06384287291025 -9.138714883314071 
C -1.98979331 0.86264542 -0.211993 103.2273834373873 67.27574751304742 2.5536715528487672 
C -2.56961197 -0.31774952 -0.13177274 -82.44137889231065 -68.25439850783813 3.4655572652556237 
C -1.94853263 -1.55927222 0.08403284 64.70678124034026 26.180655488858385 -11.136830461675622 
C -0.50734545 -1.55718799 0.13932378 -36.59468770474673 -18.765448489230202 12.749139162542415 
O 0.01926049 2.12564047 -0.20417278 19.382549761854364 24.806874691504948 9.28131104998265 
O 2.17912364 0.90685347 0.15767765 67.17459934941887 111.16354889664859 10.044772285277139 
O 2.36495865 -1.31090297 -0.00606773 -15.596951254345601 -6.698757639724132 8.641972075272552 
16
Properties=species:S:1:pos:R:3:forces:R:3 energy=-310689.82655336754
H 1.03043306 1.83375174 -0.09553799 -18.41476800277632 24.53537977707648 7.41178472008784 
H -2.52754677 1.75735642 -0.01056492 5.046853188292018 -0.7911608291208295 -12.144365685518176 
H -3.70324485 -0.40988076 -0.16307666 0.0318096495736802 1.7775184748930637 -0.6116476816310837 
H -2.41204446 -2.55269284 0.09688658 11.58084455106129 8.58159006758227 -17.71174569458235 
H 0.13517581 -2.38710746 -0.10206228 -5.478793247781722 13.898804525382255 15.950831085983067 
H 3.16220911 -1.0298346 0.26136816 65.1269555834061 12.043120284563813 4.381049059465035 
C 1.60502272 -0.15795039 0.12431584 28.96886821486201 6.364063206798782 4.299840476734212 
C 0.1837444 -0.21901761 0.07359609 5.101033351908846 -65.1834125234323 -5.573916254672753 
C -0.56261382 0.91197541 -0.05015796 -6.696072940874746 81.34957329579508 -8.387645477956022 
C -1.93973687 0.83232239 -0.17074472 -42.12689033246503 12.656856197057868 17.208099036407823 
C -2.60144371 -0.38232724 -0.16435194 -6.651349700104145 -14.36366060548207 -3.1728219242413678 
C -1.87387922 -1.59862019 -0.14803268 8.351959379381173 10.060097836482738 33.9456832546817 
C -0.48013033 -1.45522176 0.03679374 -9.640408494224936 -54.55152245069299 -27.512330152490954 
O 0.01090358 2.13010575 -0.08686404 25.861958967672027 -22.80989394388494 -0.963000528618356 
O 2.23380052 0.92372222 0.13344169 -1.0143667388917244 -5.349445073845189 -3.712938508702515 
O 2.2824392 -1.32528725 0.17841514 -60.04763342903852 -8.21790705335298 -3.4068780965881866 
16