16
Properties=species:S:1:pos:R:3:forces:R:3 energy=-310667.14666396717
H 0.81643582 2.24070714 -0.29724575 126.59258907662388 3.062506178101949 31.58419890466819 
H -2.38209855 1.71061542 -0.69610768 -35.968901478777646 40.950858238655165 -3.624153715305289 
H -3.57893647 -0.44092531 -0.07505348 -64.20699442967225 -8.62226491529995 -13.015991587573644 
H -2.42094232 -2.49938414 0.18071198 -2.137546788656889 -11.261711647729804 4.34484950037703 
H 0.21497746 -2.36610927 0.47555919 -7.895640024995465 3.6151426611725626 -11.484635332091619 
H 3.26794763 -1.22350603 0.23506385 -19.623241788777673 11.844909110812079 -0.8223111621926285 
C 1.64227654 -0.12826292 0.19631344 -2.804084940711685 -11.872882629300173 2.6936933020252876 
C 0.16923086 -0.22578523 0.00191861 37.5224266587249 -59.70987957781308 13.2042809966289 
C -0.55983171 0.92441053 -0.17444685 -61.031886242453126 30.91642987036708 -3.0317187062703943 
C -2.03109692 0.8941947 -0.1329179 93.94640441729769 -57.38187451340679 -35.69246169058507 
C -2.55145508 -0.40683368 -0.23364961 15.11458889813558 24.862917779985906 47.06146168332245 
C -1.85995006 -1.57215749 0.10203067 48.57407366552167 -4.9187880727278515 -19.19696758224838 
C -0.43194136 -1.53004941 0.13129094 -29.562251880734145 26.1581414904686 18.02314230140615 
O -0.0456257 2.11425373 -0.49208752 -121.04461028570229 5.202769682776482 -25.61076886702362 
O 2.2266751 0.86833781 0.56022846 11.346433818221552 36.84961432751282 1.5547584338356715 
O 2.29671883 -1.28555217 0.02521647 11.178642511776946 -29.695889169396043 -5.987375293151989 
16
Properties=species:S:1:pos:R:3:forces:R:3 energy=-310679.70742764446
H 0.83863154 2.09483937 -0.0006519 21.79247608744045 3.4402874187536616 10.145634666033468 
H -2.66947167 1.67363686 -0.64709134 13.606892144174303 -7.505807285047673 2.9032895436449384 
H -3.63788795 -0.68360313 -0.49148815 -0.22443560619616615 5.290328337211576 -8.389632914030038 
H -2.19697051 -2.56413827 0.25228346 -12.456670631263634 1.9986183664852868 8.073427802862481 
H 0.09359791 -2.23575206 0.89522936 15.51206544054943 -9.380309320053804 -6.877121726619773 
H 3.18876158 -1.01031125 0.09827092 27.82437777506931 -2.8851286943170384 0.7379743835410082 
C 1.63492209 -0.1748733 0.16714824 -12.74334761255107 21.202547904097962 -23.206791805628075 
C 0.1994394 -0.18591406 0.03311784 -17.008730501314655 -48.684596930344235 12.724226248175466 
C -0.58331176 0.99482717 -0.2672655 -44.551862355489725 -58.12913861902646 36.03333543698399 
C -1.98736042 0.80992822 -0.44214507 -12.6857961596989 -24.43801201094433 -21.277075571052524 
C -2.55245219 -0.5220643 -0.39813349 1.2906903166217403 52.89094371830538 20.93223288161081 
C -1.81538036 -1.53519329 0.17478062 41.31396850131897 -46.04988992463745 -14.361294892494206 
C -0.40421014 -1.44827769 0.33948656 -47.984560519545475 48.92996583547514 -10.361126809896561 
O -0.13533812 2.17824749 0.04654153 14.40134955580454 44.817207601970786 -22.11066863468202 
O 2.26426869 0.86981668 0.2068644 23.39253169943325 40.702061124878696 7.058555904204927 
O 2.28189227 -1.32895653 0.03494372 -11.478949320173417 -22.19907752280749 7.975035487346115 
16
Properties=species:S:1:pos:R:3:forces:R:3 energy=-310679.0731139183
H 1.06943253 2.06947187 -0.10013691 -22.869543114168458 -24.608855620762753 6.891236554536847 
H -2.29850415 1.94865392 -0.22561995 -23.426052488777103 -17.413254378208144 -4.369317731851525 
H -3.64059084 -0.53851647 -0.36883587 -7.695296745002037 6.132643114638442 -10.501060808315636 
H -2.19960425 -2.55103212 0.012904 -36.52994661888934 -42.10492655504085 0.28980161974509344 
H 0.1204316 -2.36726253 0.45248763 2.8403343042836453 -5.878604671836224 0.22966626283249436 
H 3.20003423 -1.01954238 0.30850581 48.62019261766406 18.243943366094644 3.077041972490548 
C 1.55328211 -0.16571856 0.1536148 47.970376914007694 -8.198786874798422 -38.85250639304987 
C 0.15441657 -0.25159437 0.00872876 5.126004371507078 -59.149034841458246 43.05652304265454 
C -0.53618187 0.93857432 -0.02730478 -39.75211292851971 7.112184661035112 -19.74294212267948 
C -1.95610486 0.89048086 -0.17574704 11.947509905222649 -28.089926982770383 -8.175800919632113 
C -2.55418949 -0.41992111 -0.32378182 -9.121910613263424 57.45934657401994 30.029088281981696 
C -1.83293768 -1.57447315 -0.01902105 17.97212353669942 18.86028215578587 -3.5001476651834613 
C -0.49148982 -1.49476885 0.21984538 20.868319498843903 15.468392837226071 -17.882283362570764 
O 0.04202013 2.10455989 -0.02744261 10.277647379861595 55.566799900148474 -3.3985299164204807 
O 2.13354795 0.90132204 -0.03526691 37.33806350315477 32.04036054485471 12.298084853603386 
O 2.31152639 -1.2917 0.18060711 -63.565708336803716 -25.440563228928237 10.551147517679777 
16
Properties=species:S:1:pos:R:3:forces:R:3 energy=-310684.46347175754
H 0.94689302 1.97847771 -0.17755816 -25.0210055128066 -4.49748601384674 2.9999707193911345 
H -2.4705225 1.71347344 -0.17841069 -25.369429381808896 30.677119324963 -8.056314033518683 
H -3.61951206 -0.43809142 0.03757722 -36.10925170038406 -10.363469992284541 1.952466211353595 
H -2.20888183 -2.56571819 0.11574207 -0.04582012523865808 9.845629056182819 1.0950322155832282 
H 0.11193917 -2.43764217 0.21804283 24.809003240283502 -16.301004041029024 -7.425077774019656 
H 3.09249314 -0.97459742 0.94162698 1.6880684358887235 -0.7569890240224235 -7.060602631331272 
C 1.61709358 -0.09003079 0.15887169 15.503823984275913 -14.845800027335338 14.602573900835553 
C 0.22234717 -0.26493031 -0.14201566 -1.4465392193065518 -13.32099068985131 0.8815962854148517 
C -0.64394642 0.86036419 -0.18645536 101.42135901035624 37.272104579082566 -33.338395837038775 
C -1.98534592 0.78036757 -0.30001792 -17.378259613303435 21.4857350140454 18.446603740413025 
C -2.56950821 -0.40925359 -0.09870278 15.826724241072283 -57.3576766491309 -1.626912087055046 
C -1.73900547 -1.56354155 -0.01368198 -41.870881055083444 -28.02712708596619 -8.796427638227668 
C -0.36156532 -1.53118656 -0.10294972 -32.42227911513783 11.407612697655114 21.9053757376403 
O -0.07926487 2.08026753 -0.28587466 11.430693518505146 7.6983620924073675 7.17999702340307 
O 2.1462121 1.01881965 0.29220082 15.951914926419613 2.8274420578655635 -2.020423243889232 
O 2.29267297 -1.26246504 0.44760434 -6.968122819552999 24.256539887085687 -0.7394602173123342 
16
Properties=species:S:1:pos:R:3:forces:R:3 energy=-310683.09262599493
H 1.02700618 2.08282599 0.21488989 -22.6452249042559 -12.820594367165372 -2.100323866005712 
H -2.53193408 1.73515518 -0.22602681 -4.809046263974963 18.98506966197738 -6.768888282238095 
H -3.59779438 -0.21887378 -0.0831188 -57.44772434194271 -10.814268163877518 -2.9781658419871895 
H -2.31724867 -2.44196986 0.55075774 -17.14853168777652 -11.303719358303807 -2.067493224510953 
H 0.2376071 -2.28194121 0.32173022 -7.510220910982929 -20.411384703335038 9.01034975502513 
H 3.11301199 -1.26251125 -0.25363681 25.554738822574176 8.15149395981995 2.9973132944258185 
C 1.57897366 -0.2173877 -0.00303387 79.18398302520836 42.61424499528102 -5.300497938506781 
C 0.19955906 -0.23885125 -0.02751282 -78.25881255961701 -12.654268735534298 14.89490369105189 
C -0.5431199 0.97107087 -0.08566244 29.024334994314344 2.479418996377001 14.889273412722874 
C -1.92610725 0.84146653 -0.22315346 22.038874285239753 65.90053424386974 -6.3843454899789585 
C -2.56347866 -0.32017511 -0.1430842 23.597735659896482 -78.89796417460177 34.80904635568481 
C -1.85524599 -1.51690795 0.23735036 -14.206149181689996 9.230987176409197 -12.672784145355118 
C -0.48828496 -1.47927477 0.23279096 28.620905630246824 35.21806449434472 -24.83988913526192 
O 0.00842304 2.1775074 0.11385168 14.796115311305975 3.108175704067696 -10.626086664537498 
O 2.28473578 0.79380464 0.21457528 -8.75151822355276 2.7901515434147326 1.9145246811482097 
O 2.16495851 -1.34970043 -0.35220775 -12.039459654993117 -41.57594008692261 -4.776937787497553 
16
Properties=species:S:1:pos:R:3:forces:R:3 energy=-310671.2699172649
H 0.78763442 2.18427065 -0.5997524 81.40898411604826 -4.953922764516056 -11.373521528387872 
H -2.43843067 1.75322539 0.08876962 -33.4571973185873 48.45756674769822 6.323344483702379 
H -3.60695694 -0.27497915 0.59066515 10.520119324175774 -19.614408607801927 -2.8965517084584467 
H -2.40743379 -2.51437601 0.12116225 -19.472250009099533 -43.44812621342483 2.2467905525702268 
H 0.04753647 -2.65495549 -0.1989977 -11.950036889872846 54.45881733291588 -18.3661872861413 
H 3.17093221 -0.74298221 0.79513298 3.772131137883108 -16.95078654169608 0.41770072036274214 
C 1.65396715 -0.16084268 0.15399563 -60.52153139461828 -39.10106990008016 -40.28391097833931 
C 0.21308403 -0.31123284 -0.23618892 -0.6754851718510092 -15.952530367542773 0.8964795253700898 
C -0.55236697 0.93415035 -0.22560752 -14.749167470252049 -20.97617703795382 -3.89518023042037 
C -1.93874601 0.84708722 0.02583532 39.99867595544448 -66.98700364567583 1.5061955045163453 
C -2.53955302 -0.40692864 0.27468871 -17.586436427130366 32.98626271980287 -15.04057469169417 
C -1.88335212 -1.61596149 -0.00586373 51.81203985477626 45.67061929275126 -16.18651064734261 
C -0.47236159 -1.59170175 -0.36496049 -14.919998036038963 -11.923085549126878 65.25844653597375 
O -0.10858796 2.19672366 -0.38241342 -63.558453483640925 -6.352371011279808 16.14877782164142 
O 2.19823653 0.89897159 0.05305058 38.34677150401236 75.7881591524161 0.6106006016469808 
O 2.33340607 -1.22347856 0.56302377 11.031834308751023 -11.10194597812824 14.63410013917911 
16
Properties=species:S:1:pos:R:3:forces:R:3 energy=-310684.7996848936
H 0.91082372 1.97917435 0.08623377 -10.799407454522163 -1.052381790001996 -5.437991517212059 
H -2.37448137 1.78021921 -0.613328 -4.735174356059139 -8.942799459108459 -1.9453584000005801 
H -3.74317525 -0.45276519 -0.61235135 25.09660753362934 -4.236555579121978 11.026147111011776 
H -2.37322795 -2.53397842 0.09966943 -1.7733396415250247 -10.958409455369749 -8.561043346308713 
H 0.01567977 -2.4570227 0.2041612 7.666066256204601 -4.480481340039226 2.8304457425764724 
H 3.25164513 -0.74724904 0.88824193 6.683698898254005 0.9893411715253517 -7.495160983691756 
C 1.66349648 -0.10134848 0.12418321 32.717163163888436 44.20544963898238 6.215126454994306 
C 0.19824626 -0.28494512 0.10040195 27.544797932745468 -66.5868827223282 -10.429181079758013 
C -0.58326246 0.80196805 -0.05562986 -26.058635688989522 93.50213419056595 -21.60456495529904 
C -1.94993613 0.77249469 -0.43999225 -6.90700085952967 2.782951238020087 22.21011988839296 
C -2.63616483 -0.42265603 -0.34370495 -12.068013039972971 -3.2424177614633356 -23.731074121654654 
C -1.84739026 -1.60189321 -0.10872168 -81.47553002153849 11.456366544162934 4.446026123710695 
C -0.53129864 -1.52160103 0.06464407 80.15271106948154 -7.360956872569606 14.419906469361987 
O -0.10192354 2.04978394 0.05141737 15.502836195344136 8.807650248612209 -0.4347623135804909 
O 2.24854519 1.00651194 -0.18504826 -33.880836630751155 -60.375394366304704 23.96231515483696 
O 2.39334446 -1.13317437 0.62491954 -17.665942170838346 5.492388686080407 -5.470951413200892 
16
Properties=species:S:1:pos:R:3:forces:R:3 energy=-310689.2051085272
H 0.9703707 1.9819021 -0.06273064 0.56719717970119 2.6669305068257203 -2.5526683482433867 
H -2.66745553 1.72238297 -0.25493842 13.63304068407176 -9.630965801231264 2.681458000466994 
H -3.63860176 -0.60075549 -0.10666482 -19.727298771433407 16.776831337451508 -0.7986990935137424 
H -2.43190635 -2.54867378 0.12766313 -5.448720826041236 -24.61028572094489 -5.257616277821473 
H 0.12192424 -2.38117125 0.11513838 19.376390607338585 -21.043622981618398 4.8711536412879735 
H 3.31183207 -0.96663409 0.19659647 16.077011931904266 8.71502458084521 -0.6616075081432449 
C 1.64004034 -0.17895616 0.16370777 -6.0974372735874445 56.48635906054754 -24.227420865466623 
C 0.13923635 -0.23220516 0.09179865 45.31837707997908 -49.04814238933213 -11.110302459043272 
C -0.57619487 0.9359687 -0.14955793 -28.961538654973292 48.76814750964199 23.74906777021499 
C -2.02618498 0.80679849 -0.15696207 42.900560301149255 88.06494428838137 -16.45922102834379 
C -2.57536856 -0.38769569 -0.10707689 -31.07143091100361 -120.45530821587238 3.865667516213856 
C -1.85776752 -1.66080837 -0.03920202 -3.1763687149915962 73.03268338804456 5.626520462118718 
C -0.499609 -1.51462526 0.04611915 4.282484799896919 7.191205403935052 6.505557745715118 
O -0.02066293 2.18512914 -0.14917284 -9.8520099592343 -34.35202618106059 -4.680928972284749 
O 2.21823561 0.9303856 -0.00024378 -8.726982400278612 -13.413113569494573 10.95318235619656 
O 2.39592519 -1.26456147 0.26198327 -29.093275072497573 -29.14866477358188 7.495858246467127 
16
Properties=species:S:1:pos:R:3:forces:R:3 energy=-310689.7598339241
H 0.83999217 2.03871897 -0.33242496 40.347109311015146 5.533365918164958 4.345472056426469 
H -2.6533255 1.76914775 -0.35433913 11.841688420849653 -3.6622624462782385 11.087776602443025 
H -3.69354859 -0.43625636 0.0270837 -15.112633479229823 -3.1883383926354627 -7.970543597221787 
H -2.36197444 -2.52222396 0.01560872 -14.706851446205945 -35.80742111194277 0.5557101312232686 
H 0.18673358 -2.33499948 -0.05687171 26.06872346863252 -45.417206963461624 1.0800375084496148 
H 3.27366838 -1.07205355 0.40651728 -46.25820073624263 -19.483923231481757 -4.982319621117767 
C 1.67292731 -0.16701016 0.02968477 -0.4594143473172006 -16.529507013414854 45.271802772554814 
C 0.20701873 -0.24483219 -0.05925686 -27.410558246991926 12.180125304997912 -10.565915732993501 
C -0.61774835 0.97448817 -0.07918543 25.938682775204803 -4.481460828223676 -4.785931054314582 
C -2.00734245 0.88422825 -0.15086401 -24.816125281489075 -24.72555464159575 -7.372618236741369 
C -2.61856807 -0.39883368 -0.11128025 27.86208332688643 3.6293736995521986 9.761044440932471 
C -1.8559172 -1.6001268 -0.07598716 25.298047698090823 53.48907422582684 2.047497910024042 
C -0.4416684 -1.5028829 -0.07365864 -43.24264121337357 44.6354413944926 -2.4578595839296913 
O -0.06331944 2.21179824 -0.06157856 -28.437583625555558 -11.472774749984035 -4.137303543346863 
O 2.30124101 0.87814042 0.19658683 2.322875202558912 7.512264080646133 -21.0381231436045 
O 2.28929888 -1.38634654 0.27434394 40.76480054480952 37.788804755337516 -10.838728094604686 
16
Properties=species:S:1:pos:R:3:forces:R:3 energy=-310678.35435675166
H 1.01292465 1.85678479 -0.35592632 -31.191418213598674 31.887250888787428 15.914863947820185 
H -2.46333502 1.74020818 -0.43692325 -2.8382413301364866 11.248850232658933 2.3247820028017627 
H -3.70586375 -0.23410306 -0.3262047 -37.93439274850654 -16.145059086839442 -0.14227836662810334 
H -2.43032078 -2.48895273 -0.11908665 3.6273257866048083 -13.426483701794416 0.7259466006658606 
H -0.04081068 -2.60463847 0.53971784 -7.2044640690565185 47.12119148943712 -25.03268229265197 
H 3.28058834 -0.93196297 0.34708673 13.556526766864224 -1.5717583643589996 1.5669083562786137 
C 1.64505147 -0.11181195 0.15741467 -27.413282077935847 -57.06732006513603 33.71326588702121 
C 0.19108873 -0.3150191 0.10134514 19.52232248861111 -0.8131957558078053 -14.511466084008138 
C -0.51059261 0.89354339 -0.17940009 -57.97199954304301 -6.65994215940744 8.383198649031463 
C -1.93619106 0.80661439 -0.24170671 -4.94201830702975 5.983861705391064 3.3352509479134804 
C -2.67302349 -0.36829478 -0.13518328 98.39326773066725 -3.4940501733621057 -27.719050778072724 
C -1.83847942 -1.57013182 -0.13853009 -68.96356455487427 3.357419872378716 29.247651185442567 
C -0.49577913 -1.58328687 0.16181982 19.78799739334312 -11.014041063947554 6.029129238022029 
O -0.02310955 2.12694253 -0.33214302 60.194952720935504 -32.05635608495161 -10.540400421534903 
O 2.13728356 0.98288215 0.37028947 29.841036037135748 33.5888246405753 -17.38306811764719 
O 2.37660346 -1.25441998 0.18988909 -6.464045708338571 9.06080762637684 -5.912049568633096 
16
Properties=species:S:1:pos:R:3:forces:R:3 energy=-310686.54070186586
H 0.94952695 1.98656497 -0.28262867 -22.180249056230384 9.431803599000201 2.5830052080772528 
H -2.69997561 1.67378044 0.09270672 -3.043467821199603 28.03107231258805 -5.756690410040508 
H -3.69711342 -0.4500213 0.27300538 24.920044708903408 -1.6492992025928466 -7.173179738206459 
H -2.34469438 -2.58010281 0.05218906 21.07873395698567 29.246560230079744 -5.873876803323633 
H 0.13731695 -2.33741026 -0.33559806 17.524466605058755 -10.222698804206603 2.1805754911519704 
H 3.14261684 -1.11899136 0.6553627 -15.557229806749342 -12.558833857708027 -7.618026273966803 
C 1.66317808 -0.14960722 0.1024261 -39.36236319604518 -44.25436950043672 1.94787708390345 
C 0.16766535 -0.20143254 -0.03837435 69.16126463975493 9.651058353043991 -13.740715606740512 
C -0.58542746 0.9642459 -0.11849311 -72.89652622965875 -11.041524838343422 -0.052400246225959166 
C -2.02968177 0.85247088 -0.0686966 42.722126250811876 0.33216863409620045 10.879534568458533 
C -2.57703356 -0.39073425 0.06455448 -48.739169600727465 -23.343142252844476 11.731201916479531 
C -1.81457972 -1.55830545 -0.01365826 5.16859669185703 -32.95350441339195 -13.278031950797978 
C -0.4096423 -1.41868988 -0.2015921 -77.7650094019499 -57.09563391426449 23.097785205924048 
O -0.06900117 2.13815541 -0.25423907 62.068159839358806 47.036285516683165 -0.7825019638389278 
O 2.34565424 0.84584027 0.00360221 17.448233727439252 36.17515370504603 -1.2120751245197197 
O 2.20022533 -1.37828169 0.42756667 19.452389878211925 33.2149032474301 3.0675186436657125 
16
Properties=species:S:1:pos:R:3:forces:R:3 energy=-310677.5629090771
H 0.88762162 2.05962116 0.20263627 -31.393144160932383 5.652670187837219 -14.793811261012532 
H -2.63427052 1.64523232 -0.70619028 -0.7139034021171077 24.78871977128228 -4.814611322146419 
H -3.61061043 -0.47807337 -0.28438433 -73.62959487153017 -6.631375730396072 -9.147999862108552 
H -2.41678163 -2.40080417 0.55895436 5.880985800497694 10.31634546389468 -13.099937045279901 
H -0.08379761 -2.50201466 0.56156539 20.453269088520198 -6.917443199665581 10.530427666533425 
H 3.12267338 -1.18502913 -0.14570363 31.517960126829003 -1.0468499348198443 1.0115207683800063 
C 1.66572811 -0.09484601 0.04750194 41.167487584901906 -6.455112918394917 36.812680745197 
C 0.2382876 -0.2815928 0.13864743 -78.52065489072658 36.38021892444681 -14.470364340713699 
C -0.60171318 0.91745152 -0.18240802 19.114767653122644 -5.510966944416692 23.68345866335152 
C -1.98287363 0.82967652 -0.45400946 5.437034559627493 -41.55398105278261 4.107547735825806 
C -2.58833906 -0.4164772 -0.26187893 61.165250792274314 31.492421098949475 10.016454878685545 
C -1.8548954 -1.49096383 0.20626569 -38.324296637717126 -50.26195829914818 20.676963556562267 
C -0.50505042 -1.52417991 0.38710844 41.02497679734868 52.189613576744826 -28.059315012453716 
O -0.11028261 2.16805847 -0.08158006 50.749336678385106 -13.420377909225731 4.213775956817769 
O 2.4472875 0.89405207 0.17345777 -53.62324631978073 -17.016032787319308 -16.165500270039853 
O 2.18644343 -1.3349286 -0.01445799 -0.3062287987029384 -12.00589261862845 -10.501292043419713 
16
Properties=species:S:1:pos:R:3:forces:R:3 energy=-310681.25286790566
H 0.70435811 1.97621857 -0.52339914 42.09030893900003 7.744836790863719 -4.584257283106926 
H -2.41050986 1.81593225 -0.29646261 -6.61386826846482 6.8472437795309204 4.86440276206997 
H -3.66032318 -0.36252289 -0.38675058 -25.837833438479983 2.316901036126397 -9.431516630306932 
H -2.46370744 -2.38627384 -0.35714638 -15.391363087863285 -51.46916088498762 -1.4129947135417704 
H 0.11085955 -2.40578496 0.0770009 -6.432160166217913 2.0707767629888476 -4.102975209870313 
H 3.3141894 -1.08534477 0.27724483 -28.84907894438171 -4.404656384859735 4.607186318863 
C 1.65821991 -0.13793201 0.05404025 16.50572181486317 -78.40158067033734 26.32796648000804 
C 0.21807102 -0.26921013 0.11993804 -42.10008959099197 8.18588751345406 11.497164717269458 
C -0.57869521 0.91805207 0.16322958 4.982518839053588 -27.72768118364951 -38.901244823884085 
C -1.94014486 0.85944603 -0.06414639 -30.987456993592232 7.752689297833969 5.782486761087138 
C -2.60439587 -0.32180028 -0.22272109 17.940573581934935 -31.782870176985984 19.71257561731945 
C -1.89066446 -1.54991721 -0.10414979 9.773168275312388 59.55388837660268 -6.979063204528462 
C -0.51183473 -1.48860212 0.03093022 26.758886733397713 -20.44659054438603 9.608588172261836 
O -0.1144201 2.12755482 -0.05087389 12.056655245989123 43.735839602306946 13.511064759581624 
O 2.29349739 0.81578924 -0.29704628 16.280518982449887 58.0673431126487 -19.721894984924283 
O 2.339035 -1.29547446 0.44132344 9.82349926381212 17.957132387028945 -10.77748873829775 
16
Properties=species:S:1:pos:R:3:forces:R:3 energy=-310680.8927068789
H 0.94583858 2.13114349 0.09426565 -13.095362147682318 -12.425642437759628 3.831955809681511 
H -2.56066805 1.77813161 -0.23687768 -3.4232874882303332 33.96345752634842 -0.8155140359538089 
H -3.64641837 -0.30146845 -0.31487711 -25.271344193943587 -0.7703057943751701 -4.695004668107288 
H -2.27438797 -2.46972209 -0.4107592 -13.375965353569326 4.382735296993228 10.552441248441562 
H 0.14901462 -2.24424761 -0.41525894 2.739284563801962 -22.53733890544086 10.930185728640831 
H 3.14741954 -1.28957665 -0.25369964 17.280297750826964 7.946764327775337 -4.850729059582212 
C 1.61682416 -0.17374331 -0.00248519 22.484919686078157 -64.7122644768595 -1.5556679585783744 
C 0.15890752 -0.25794574 0.14149617 32.07719333238157 24.69674037598565 18.490166062379057 
C -0.58319264 0.93662195 0.19979516 10.08775948403559 15.9506306822262 -22.12541550521691 
C -1.9328668 0.92775438 -0.10988155 -17.08181265241348 -23.05433316531535 21.63150206619245 
C -2.590039 -0.28011568 -0.13809225 9.734917245813852 -36.015822045947495 1.0025939075415846 
C -1.88186274 -1.49813984 -0.06095263 16.89656606016367 -12.835520296678286 -22.77605891196376 
C -0.47684039 -1.4550733 -0.01619366 -32.53822869706941 -18.376077033669517 -13.262310335362828 
O -0.03055881 2.12738913 0.3159708 29.75618579797097 40.39786245180745 2.9385606048534956 
O 2.24045523 0.74218501 -0.47581134 12.518291821947557 52.698318947503935 -6.993691492958691 
O 2.32750928 -1.36710626 0.24643868 -48.78941283846975 10.690796919047681 7.69698653999337 
16
Properties=species:S:1:pos:R:3:forces:R:3 energy=-310686.93901771697
H 1.06380384 1.86317607 -0.09970849 -5.717068571412163 10.157582998898498 3.3132314369001095 
H -2.56968969 1.78727119 -0.12469621 -10.559227702290965 16.938746900610468 2.2466909436023172 
H -3.69015031 -0.46988335 -0.14238328 -31.183518273786568 4.866080698850836 -8.065457899608626 
H -2.31600097 -2.49469691 0.01376804 -32.69478672074005 -33.95407649604917 -2.0360737100615878 
H 0.11351302 -2.30949646 0.3294717 35.4445385269199 -77.09647669889479 13.934675612040365 
H 3.28286298 -1.20409122 0.22137378 -49.792573568471596 -0.44868029520383795 4.552663452963717 
C 1.65578018 -0.14927956 0.13916906 -11.130283543677624 1.1751462854880872 -16.48355407621898 
C 0.19949672 -0.29441376 0.02435957 -34.952216459739915 22.572040772547073 -3.8421360833661353 
C -0.56977361 0.94691522 -0.11766275 -0.012669312061330821 -7.359306209672809 24.78434171997842 
C -2.02460175 0.85942793 -0.08716224 56.25143723883674 22.250721215205754 -25.008438181355274 
C -2.63284768 -0.3551373 -0.23583526 5.945001163874602 -15.06748808616665 24.259583889712175 
C -1.90525681 -1.53215723 -0.10273143 57.573044281784114 -12.6210396581679 6.21568141924409 
C -0.51226717 -1.55048664 0.07550895 -29.616907558590636 112.50741735810283 -21.06234591012236 
O 0.07088803 2.14052514 -0.07062241 -13.2029054442149 -24.908185312616872 -10.387242146804711 
O 2.27983879 0.92341068 0.00753269 -1.478175739007436 -9.54742352268083 5.804105464586774 
O 2.25426614 -1.32819509 0.27913497 65.12631286839887 -9.46505995025067 1.7742728826886587 
16
Properties=species:S:1:pos:R:3:forces:R:3 energy=-310678.43462912843
H 0.82222216 2.26725195 -0.01923971 1.5068690508707847 -22.040299642137704 -3.797419957521814 
H -2.69033484 1.6606897 -0.22047004 -1.9232013337458096 34.576128571542675 -4.19157738682637 
H -3.65422952 -0.46208723 -0.25739485 -3.8462473249345215 -4.17490118544875 -1.6837235875741678 
H -2.38290568 -2.55513524 0.10230963 -1.7404283641991 -8.315393401589784 -6.3142314489596485 
H 0.41294687 -2.37839888 0.19546458 -31.123061559370353 -1.4761444275546973 3.9126592326465044 
H 3.22453004 -0.91687757 0.45752614 7.392872060216428 -5.609377047248757 7.038781152432675 
C 1.63411738 -0.07336654 0.12113232 -27.490499187023982 -84.49075277123035 47.79833562493226 
C 0.19211335 -0.29993126 0.0061854 -6.644798038821962 20.704794776524775 -35.25981488175162 
C -0.56345254 0.90431321 -0.29413914 -29.910226323559797 -37.86616772041438 48.92262797483908 
C -1.97573681 0.87030994 -0.25286937 -4.391153440602681 -81.82499385559859 -20.205013894962 
C -2.55831122 -0.41001969 -0.26733698 18.658939228650205 -19.341801393231798 19.479975633217794 
C -1.8134804 -1.64016723 -0.0753274 13.06614588873744 16.493972699933963 6.77992709036042 
C -0.40066398 -1.60522404 0.0931374 -2.187157983781365 35.68659306222569 -17.004154417896025 
O -0.13209491 2.11667044 -0.23215887 37.41198521555455 76.91044746475427 -7.981700987448767 
O 2.21821373 0.96028819 0.24952017 30.435012613531157 77.24701193747002 -15.801771008789752 
O 2.30020302 -1.23479616 0.46878274 0.7849471268369121 3.520882932003419 -21.69289913669858 
16
Properties=species:S:1:pos:R:3:forces:R:3 energy=-310675.06491712003
H 1.07125824 1.85640568 0.0213017 -30.821056655235225 6.048105932229955 -3.6021235319024996 
H -2.61008762 1.81887775 -0.16318837 14.435727693765045 -38.105258888924844 -16.041771702042922 
H -3.76806854 -0.41140536 -0.31943507 -18.254120082316128 -9.43109566383541 4.6486106054821 
H -2.25117809 -2.56056939 0.0968357 -30.017913104439018 -49.99408488219587 2.085357618577216 
H 0.16050367 -2.55408312 0.14285323 -31.410993139325036 55.2799794345144 -10.736978719705537 
H 3.28829512 -1.1031861 -0.06034984 26.652856544520525 8.114448910325756 0.9831322125256204 
C 1.67459658 -0.12171096 0.18411011 6.484119287014556 0.2901229772487082 6.590175563954769 
C 0.24629471 -0.31610579 0.04124338 -56.1378320251142 65.42978463316858 -28.157136948046695 
C -0.66059157 0.94178284 -0.18266103 106.89318081620532 -13.125804545589325 26.20232281102093 
C -2.04942991 0.79726072 -0.27021278 -10.15037913604071 76.98085321775102 10.490165484539943 
C -2.69551126 -0.4176957 -0.20725194 46.46129867852719 -40.5307443724627 12.982662901239335 
C -1.87221832 -1.59763401 0.01684122 19.363820904245166 68.20071283159771 -31.227871538390644 
C -0.45413869 -1.51137876 -0.0219855 9.73697701697171 -76.737850025608 36.0168691259316 
O 0.03490625 2.1283992 -0.18045698 -23.132680361860846 -36.13818691974091 1.2875727930903627 
O 2.19533042 1.0280954 0.31921452 1.0040690689234917 -39.13434285282529 -11.075841313609507 
O 2.39051536 -1.29993341 0.20928127 -31.107075505841827 22.853357842704106 -0.4451429910219819 
16
Properties=species:S:1:pos:R:3:forces:R:3 energy=-310678.1472384351
H 0.8814381 1.99379625 0.03596468 9.021741937819327 5.64939495010665 -9.744906602309984 
H -2.37322899 1.67315074 -0.62260237 -42.94222293779871 50.79014433805999 -14.036415500371142 
H -3.51428095 -0.58424478 -0.58322377 -37.58372767772626 1.8852847057824011 2.051574762782078 
H -2.25012606 -2.54820384 0.23307398 -4.800491750945159 12.833225732953213 -10.797970239413747 
H 0.16379313 -2.36420813 0.6243191 0.6186499549109564 2.3736330866354005 -0.20117098308391895 
H 3.19066472 -1.21167079 0.50353954 -41.16230791857058 -0.8563857299652176 -26.11746308528778 
C 1.63286221 -0.13565154 0.09545788 -13.839954598484114 24.950274844843086 6.4030067557885015 
C 0.14200412 -0.23908973 0.16761986 71.66660568420951 17.13592759587275 -9.70284790143098 
C -0.60047667 0.92675567 -0.17191419 40.00916928588539 -9.67576256290675 36.45652769461329 
C -1.92977035 0.81691556 -0.25346026 -44.20543303748773 -51.996897497722806 -7.495966156182363 
C -2.54853493 -0.44502524 -0.15772438 -12.648122625050036 65.27339262444445 -36.16342237743251 
C -1.81759264 -1.52851237 0.06815762 59.327194967133885 -106.70964299208357 59.63941097630085 
C -0.41943058 -1.46714928 0.38137826 -54.75233768746295 -11.03278415140931 -21.29565027192567 
O -0.06702462 2.13042908 -0.23877537 20.542919531281406 20.47718947067119 -3.3999944054129694 
O 2.23887777 0.95040312 -0.00312455 -2.72655714650935 -20.292697060606983 7.547220899277356 
O 2.23309143 -1.33416436 0.13266666 53.47487164715233 -0.8042985404955473 26.85806643408899 
16
Properties=species:S:1:pos:R:3:forces:R:3 energy=-310680.3182169855
H 1.02025845 1.88279676 -0.16357742 6.326033925835953 1.6352033478125172 -1.8174083090779296 
H -2.60374169 1.7162902 -0.54542821 18.10559362459376 -16.436232701535392 29.459056989979253 
H -3.66073303 -0.33545349 0.22990505 -99.53784947868053 -10.873958837897659 5.871979489649155 
H -2.39546234 -2.45489872 -0.15824274 2.395807940205869 -15.37128002261893 10.94512707382735 
H 0.03040304 -2.45723803 0.06329819 8.26036300428258 3.698240256830539 -7.164816142365147 
H 3.26067828 -0.98476211 0.53382135 -7.743212216029948 3.440018237376095 -5.828847620723023 
C 1.60661097 -0.13987994 0.17593364 59.778486440282215 0.6953393736333813 -11.54017563244884 
C 0.18359566 -0.23792983 -0.02770492 2.5341327794647777 -64.23361611216727 16.331493871777894 
C -0.60531939 0.88886828 -0.11148167 10.255477269575312 77.37178284216688 -29.456583367276153 
C -2.01970972 0.81978994 -0.11762659 -11.987110399072158 39.93828208954373 -31.468084493611148 
C -2.68515464 -0.40188892 -0.00267799 111.48537124211364 38.14844886308226 -6.5672465281986945 
C -1.86132216 -1.5130749 -0.01681636 -23.259649778778 -42.6460724321704 -9.795914694627292 
C -0.47910751 -1.49101814 -0.05670544 -0.8454666897685932 0.26414045229777044 15.650443641755428 
O 0.05456197 2.08318853 -0.34348395 -38.50535491003052 -16.54252495686387 13.358619163300409 
O 2.2729949 0.91055194 0.15999379 -16.493864790218726 18.70996747992531 4.1587384445842845 
O 2.34536268 -1.27024853 0.30397348 -20.768757963775634 -17.797739065235998 7.863618113454453 
16