15
Properties=species:S:1:pos:R:3:forces:R:3 energy=-170040.86816969857
H 2.68906275 -0.15548561 1.31517834 3.5267800200679083 -18.77328676634789 -36.669281777679906 
H 2.84906894 -1.02262377 -0.39924875 12.88735846372818 -34.43775392779981 -0.5930302912002625 
H 3.00664037 0.60909792 -0.20092567 14.345138080734973 51.04984270471739 -23.75744441008781 
H 1.01720904 0.99780298 -1.82918488 -5.198823270333566 5.3538764870961435 13.17283539411651 
H -1.5074962 1.46929228 -1.77643437 10.380778236279973 -1.4157505616539505 -4.255744535297236 
H -2.97499366 0.14832698 -0.24473375 7.040150775741439 18.738248126064462 1.0300717528322207 
H -1.91242516 -0.98405953 1.62361477 -43.94707702025502 -35.37998598660891 45.91220661456472 
H 0.66835239 -1.34485332 1.72018829 -10.19340783853579 -9.841344684741639 15.93912347479049 
C 2.45957694 -0.20244377 0.17102645 -37.994028874758534 -10.399265186395672 70.84821010311258 
C 0.93814869 -0.12645822 0.07076579 21.91275035872879 24.24591255886651 -34.89873118725637 
C 0.37502361 0.65631095 -0.9826042 3.7552047282646654 -10.345190560851986 3.6091803529505135 
C -1.0019177 0.84683253 -1.01223557 -23.267524816348136 13.614266765262792 -22.632522389205267 
C -1.87508881 0.24098761 -0.10372368 1.4585729312869324 -36.15060246609828 8.480562857700471 
C -1.33061311 -0.6192777 0.85941781 82.8846767457842 28.661982471299282 -22.72185384610495 
C 0.11300652 -0.77214377 0.97991935 -37.59054852038602 15.079049841370502 -13.463580927414657 
15
Properties=species:S:1:pos:R:3:forces:R:3 energy=-170042.26214513276
H 2.59217603 -0.32378316 1.32646365 1.6706202650097999 0.8259350313108826 3.9828740684547714 
H 3.14186656 -0.89095469 -0.27164443 -24.112277641846706 21.205163825326647 4.336195378379315 
H 2.86797844 0.93259988 0.0713384 -1.7736776005232908 -22.799802606778808 0.426545759548952 
H 0.81166226 -1.43973293 1.56539196 -25.52898278944313 -2.6365699305709236 -6.277990386135015 
H -1.73171225 -1.26991374 1.62415703 -26.957483298989573 -15.284162493613152 16.737278276443867 
H -2.90364049 0.29769239 -0.21717697 -14.677711079808047 -6.069489843162375 20.91260635746937 
H -1.66891339 1.55863365 -1.70671464 15.64521061347701 -6.491145276715359 8.756755995115366 
H 0.83459166 1.33949855 -1.68671903 -2.192506036701301 -11.5485914044162 14.537542288821752 
C 2.45580137 -0.11714677 0.25151778 24.886452770296767 15.74278352665021 -21.515870284301357 
C 0.96957609 -0.10711119 -0.03087012 -12.392924449264294 -1.422152809484269 -6.96955529137723 
C 0.18498519 -0.88455151 0.81090514 -17.33501864884102 5.938348707803462 25.244587327849253 
C -1.2490075 -0.7224117 0.85141318 59.403605717910374 0.7236235772356708 -10.30603593571598 
C -1.8351768 0.17532021 -0.02667063 -25.644664375818184 5.548800564906842 -24.922540862206397 
C -1.10781057 0.91789207 -0.97866304 -14.119342337798415 -20.869789916941624 15.98053708902017 
C 0.25065543 0.72098582 -0.93674465 63.128698892340005 37.137046676806904 -40.9229285955458 
15
Properties=species:S:1:pos:R:3:forces:R:3 energy=-170037.182085416
H 2.71681055 -0.12021376 -0.91288399 5.820785223427535 8.405816999673341 10.637797833193215 
H 2.85631059 0.86591469 0.60688591 -2.3068879632093364 7.716085373769091 2.783228720144979 
H 2.83630634 -0.91298634 0.60612675 6.57043045770868 -16.56796437577549 15.50677549286077 
H 0.87594586 2.06419841 0.13661397 -3.533981511283601 -5.121792335149735 2.9328307175565698 
H -1.70477739 2.26967458 0.0715495 16.87790005106994 -13.560375941981322 6.050044749641063 
H -2.85484722 0.08402727 -0.33487008 -16.716186077488896 -0.7499642201426665 -2.937472021132763 
H -1.77020066 -2.02004602 -0.38543883 -11.453666429639943 -31.406701652957576 -7.115943713752673 
H 0.71645154 -2.21796432 -0.24662337 -6.458545870324676 16.404096951173912 16.02605008660777 
C 2.3980937 -0.02687119 0.16799621 2.309109006029523 -13.330172502214742 -40.57134688509654 
C 0.90502511 -0.08091051 0.11486122 11.802157890441892 40.58764599538136 5.4426340066093 
C 0.22255507 1.16093861 0.09159464 83.10831903770023 27.763082685173185 25.94013422016578 
C -1.1072041 1.31555522 0.12640383 -88.0641604606696 -47.449929543245666 -49.70873483465952 
C -1.77931155 0.065325 -0.21303763 2.2474012504091996 22.230993896275358 35.21895030266649 
C -1.12425622 -1.1944641 -0.21041148 -107.86539043107116 59.4982982717615 -13.913595271295861 
C 0.17694827 -1.2405308 -0.03885818 107.66271582690023 -54.41911960174056 -6.291354589329623 
15
Properties=species:S:1:pos:R:3:forces:R:3 energy=-170038.00336567216
H 2.4494348 -0.56574268 1.35247697 29.200176839843973 19.836332645021503 -41.18077945301267 
H 3.01244697 -1.0697655 -0.35762461 1.5324780421920599 4.331144966542062 1.7835199152096488 
H 2.98073162 0.76273193 -0.03386255 -6.2867986648687815 -20.475709566005094 11.853199185748506 
H 1.09715177 1.44842652 -1.4699513 -18.240193799945455 -16.047490916950427 5.07474844259104 
H -1.30948063 1.8544737 -1.53637834 -3.3766550755747895 -15.01465145779556 10.206729352172726 
H -2.95845024 0.69984539 -0.15146449 26.70613311249988 -24.30381501474846 10.931576696728433 
H -1.99944275 -1.35050228 1.32365885 -25.62352118655821 -22.742050750169778 31.277891841776178 
H 0.42466839 -1.58684354 1.62541518 -3.0854553728158143 7.479684833213243 -14.965183747017717 
C 2.52331951 -0.24732835 0.21064419 -57.9180340130356 -19.027750918905824 36.68362191159583 
C 0.95568136 -0.23405969 -0.03017147 0.1195615928393618 47.76967907352135 -8.322736005510015 
C 0.37794918 0.77054772 -0.91043558 66.0313682515776 -27.80633313620397 20.536218456547356 
C -0.97183207 0.99030507 -0.89514289 -31.11618735476351 39.407695948833705 -17.902046256132554 
C -1.87736277 0.31564515 -0.06569012 -8.267914312707003 -11.297445179146514 3.2056407075256614 
C -1.34356258 -0.72719184 0.79190235 -16.299075896007338 65.20234415644045 -56.25297880619726 
C 0.02555457 -0.88398305 0.83582236 46.624117837323624 -27.31163824110984 7.070578943795889 
15
Properties=species:S:1:pos:R:3:forces:R:3 energy=-170030.40599712063
H 2.8383684 1.08671371 0.42374918 -7.289260946274199 10.877994186919068 1.125188830618019 
H 3.09684921 -0.56989531 0.3405389 17.342150176614965 -36.638010490861355 18.061619822724573 
H 2.63640034 0.20644468 -1.11223995 11.99654241967641 6.3241176390247285 -15.9861448367493 
H 0.82498878 0.01404867 -2.06806281 35.3169845002268 7.207534159746034 -55.03128311552689 
H -1.63162126 0.39400054 -2.11618957 6.518668183205763 -27.29858353720838 -0.5782917214127035 
H -2.89210715 0.61746506 -0.01948901 3.4713191697208052 -18.304300471542945 -4.703169046012778 
H -1.70064832 0.14609989 2.09365469 -19.48895941346645 -1.9210763424303936 31.869540651457214 
H 0.67550709 -0.52082019 2.12099466 28.026680031431635 -6.027928001301876 61.668532217566515 
C 2.4422198 0.17152987 -0.04706669 -9.655693727514954 12.057056053502858 5.158926321222422 
C 0.96275469 -0.05666214 0.07490678 -2.7210513793902225 -4.537028402464967 -19.068116267330353 
C 0.30244819 0.0170944 -1.17904901 -77.79612060292716 -29.04391527143496 73.76714536964569 
C -1.13387728 -0.08314099 -1.22422866 -5.725376433664286 68.37729937274456 0.5389034895305278 
C -1.90014445 0.10841732 -0.03179657 36.71038114933225 5.010453225447145 -1.5765538246712443 
C -1.1856857 -0.02615007 1.18091221 -7.1662581007577515 -5.827239647383902 -17.534926732510364 
C 0.18938711 -0.2462995 1.25466616 -9.540006212034667 19.743627527244385 -77.71136997273028 
15
Properties=species:S:1:pos:R:3:forces:R:3 energy=-170039.27378061923
H 3.02417824 0.432786 -0.71366257 -17.10442270230803 2.77568926993102 -11.841568652923952 
H 2.63714653 0.65237312 0.895385 23.33325131949521 43.79198941468209 69.69216620886336 
H 2.90522191 -0.95713971 0.27096809 7.349498283796802 -16.512859271742347 13.882854046485123 
H 0.9440898 0.87624593 -1.90994625 5.756811363787256 11.064905671918233 10.03110214025252 
H -1.35173272 1.35329166 -1.84619181 -23.71954675526115 1.868366596911285 -20.56081357087383 
H -2.89781761 0.16705639 -0.08553607 -24.9310088102998 9.750968519499944 -14.560952767922727 
H -1.98582292 -1.05569735 1.80539342 17.639935929466475 14.221132030613143 -20.414376529835476 
H 0.55895261 -1.23020271 1.95005784 -3.440162907543774 13.434830696141075 -26.969560886348678 
C 2.43634369 0.01120591 0.12576699 -13.490226326330616 -45.943029661027666 -45.68300045029828 
C 0.92426619 -0.08402393 0.03533255 34.43775629944191 -16.061199008248533 23.780748165294597 
C 0.367475 0.59323969 -1.01207555 -22.62034993616244 -12.196193180178653 -31.75448755023683 
C -1.01577951 0.64873318 -1.10579332 -4.4962444592110025 14.639698400339867 10.289290956717661 
C -1.82755833 0.090746 -0.12404886 -7.896549549738169 -6.924805962543605 29.319580718484147 
C -1.31684556 -0.57464446 1.01506274 34.958406445602904 -13.47397464888766 -16.24639935347753 
C 0.11033559 -0.70518926 1.03506089 -5.777150566377667 -0.4355164957660961 31.035415154177812 
15
Properties=species:S:1:pos:R:3:forces:R:3 energy=-170036.98010716005
H 2.79751915 -0.34693827 1.16296953 21.073822286210866 -10.42439866347728 49.974045692330236 
H 2.83334576 -0.88432442 -0.48279364 5.271164283278297 -29.21528775744015 -11.046519516591488 
H 2.98995936 0.74602737 -0.19197369 -19.022207205513205 1.9065654502837717 11.016826557585897 
H 0.604908 1.41064154 1.71492776 10.549818212286596 -8.308341323825957 -11.573063193353832 
H -1.78229097 1.76411285 1.22342438 17.03584192790191 -16.423502912600686 -1.9958696332993864 
H -2.82938347 0.27820963 -0.44705619 -13.083120917018787 4.586646712515723 7.396812543554112 
H -1.52380418 -1.30772049 -1.89928476 -6.581377957610421 13.56433184099261 39.27616823581361 
H 0.77048586 -1.30867582 -1.59792831 20.73804638449106 -22.033443224846554 -20.479753215773826 
C 2.4327689 -0.15772405 0.20084658 -3.910318421900617 27.263801034271005 -40.42546599412903 
C 0.93372682 -0.13853705 0.1691335 7.632981849005881 17.62134699874077 -31.91342195928476 
C 0.18314598 0.76920391 0.89947762 19.325582918778146 32.50320902992271 63.27144921574464 
C -1.16735037 0.94614918 0.7460701 -30.239783779711495 13.571909237480059 -4.457462181883614 
C -1.77738407 0.13276067 -0.19027409 -82.9649876619828 23.689477890983802 8.940731387203277 
C -1.15287517 -0.79885702 -0.92770716 31.477898348592387 -29.87893369196241 -80.66900332329648 
C 0.2239791 -0.78237951 -0.85404037 22.69663854737113 -18.42338062103741 22.684524199559586 
15
Properties=species:S:1:pos:R:3:forces:R:3 energy=-170039.5948982004
H 2.80999346 -1.14682113 -0.23156762 -0.05308209332772491 13.857910300770962 -9.564598954719049 
H 2.96174573 0.72727812 -0.41982862 -11.76118777328362 -21.571568298857766 7.64470013258788 
H 2.83452393 -0.17221918 1.13433453 0.3781583317445151 8.770987033495004 14.412318400485121 
H 0.64407931 -2.30302207 0.48117297 -23.349376114086187 30.832287566367093 3.533495324654516 
H -1.97923581 -1.86993801 0.56590249 15.900095732506461 5.9119867201176275 -1.8033326132553913 
H -2.96738713 0.27899229 -0.06627999 -0.6202686006394958 -7.4889128925974875 3.277596328630262 
H -1.33348667 2.33813203 -0.83649888 -19.290745868072626 -15.107171587489416 1.6316043809362406 
H 0.94159185 1.94130899 -0.65442819 12.777217033282605 9.634963203979181 -0.047314259757309976 
C 2.43662071 -0.13800932 0.11021388 55.8828567836852 -14.428488256275863 -7.65454481891633 
C 0.99626001 -0.10068296 0.06698051 -95.785501393317 -2.7363816738800097 -6.182269725436522 
C 0.11562571 -1.27945498 0.36392818 80.83208454854419 26.79190592043887 -15.869605901757593 
C -1.23096599 -1.06230602 0.33657303 -68.38250631295996 11.876359456608657 -3.7957467640251332 
C -1.86939938 0.18945427 -0.03645145 16.80175018092369 16.09554987232497 -18.029549292520656 
C -1.10162199 1.30210864 -0.50624278 50.01992748026331 -42.05320104099037 40.08152571450373 
C 0.32520503 1.10630217 -0.33265985 -13.349421935263372 -20.386225138190404 -7.63427795140976 
15
Properties=species:S:1:pos:R:3:forces:R:3 energy=-170037.26401507974
H 2.64509728 -0.77071176 1.02055556 14.003282474509513 -11.284443837192152 22.575389531182527 
H 2.62613153 -0.76989769 -0.73144263 16.08219634151978 -7.444977037001797 -7.123416757988025 
H 3.02692065 0.71593201 0.1085687 8.080981482929 20.905161772939138 2.4238051751148935 
H 1.17088711 0.51414335 -1.84927533 -30.84311174087999 -2.8656420970590966 -4.494004443254073 
H -1.61315467 0.84977568 -2.16606324 18.14474232062453 -7.83730711607362 1.7014361965464717 
H -2.98871785 0.04589982 -0.29694419 23.349669011884682 4.506122348528757 6.645395692629421 
H -1.75578629 -0.42195103 2.00106018 -40.947830837523334 -12.483039733875746 42.052816834971296 
H 0.72402083 -0.47052691 2.24039586 -32.870984312583644 3.0705531597238314 -50.36450810325375 
C 2.41414231 -0.17304851 0.16064736 -15.735762280233594 -12.378497750411976 -21.123522417913833 
C 0.9298129 -0.00416254 0.08650101 26.133515544794914 -20.908333844238655 32.57105696692207 
C 0.34684211 0.26069471 -1.10822802 -5.965215855255125 49.95588128553919 -69.47963150269035 
C -1.05195551 0.46222868 -1.2823056 -6.737035943106738 -24.883496518427716 28.403722505571352 
C -1.85953735 0.0647206 -0.17049202 -4.819169618249353 3.5891660653268573 16.363467164655997 
C -1.25756563 -0.26931422 1.10341172 40.41238994544872 13.3071806179432 -73.68097649747716 
C 0.15639898 -0.31522701 1.18309527 -8.287665348058326 4.75167149845873 73.52896846916211 
15
Properties=species:S:1:pos:R:3:forces:R:3 energy=-170030.38700966662
H 3.17860428 0.49790036 -0.04305526 -3.0876313544362324 -8.913070925471471 -1.7412062628056362 
H 2.5783443 -0.65747378 1.12886792 14.34224942066558 -13.063717327234109 62.02123097144162 
H 2.6195234 -1.21857327 -0.41993605 9.663984988272427 -16.060007258096753 -25.94865553020628 
H 0.53875941 1.71176807 1.60100648 3.8092544515663747 -21.653567824226638 -40.83472011117719 
H -1.8004279 1.73384606 1.13972325 17.743475894145913 -15.978059908853929 4.983851701909909 
H -2.94473813 0.12090927 -0.06937973 4.383110016443938 -6.824384707216593 2.2967385208719224 
H -1.66092587 -1.61892105 -1.52297359 4.808386947473082 7.684219990606221 10.093132439197504 
H 0.83340219 -1.36999784 -1.38546838 21.724673211640862 -34.590146162133934 -31.36555840592651 
C 2.44906139 -0.32901773 0.14973067 -12.288857980040186 57.82018124609541 -17.909947381765708 
C 0.99732774 0.07000071 0.03985413 -6.24494511103083 15.913506182721889 6.082302639570338 
C 0.1888777 1.00482416 0.7287686 74.00971336546465 27.42619092584858 73.85245214991339 
C -1.15767533 0.9087792 0.7039971 -41.21195943161064 80.01104102905032 28.12362683109226 
C -1.83843184 0.02753692 -0.03783598 -72.46580045092071 -44.66311845771905 -39.807144511647955 
C -1.17937973 -0.89706533 -0.82166591 51.99328311517292 13.203296765160264 -15.692482183676642 
C 0.25971851 -0.7177763 -0.79877284 -67.17893589698609 -40.31236356853021 -14.153618495148915 
15
Properties=species:S:1:pos:R:3:forces:R:3 energy=-170042.91695761684
H 2.88895755 0.69492859 -0.39419463 -6.146719996282028 -20.124227464523745 6.184936636970212 
H 2.71693501 0.23917256 1.25294439 6.503582167851566 1.3091179756851137 26.960922180024564 
H 3.17430858 -1.08109186 0.0794617 -35.03111150560892 28.270909362536802 4.273425127101284 
H 0.59116841 0.49893202 2.10327638 13.442942897920515 3.1041415408673356 30.56646680564636 
H -1.82450467 0.66548028 1.89482567 -10.572498225622894 13.391308692090625 17.615126181530574 
H -2.94814714 0.2234904 -0.25613059 -6.8159155733021395 2.5384705128530545 -0.2265653407957684 
H -1.73329327 -0.15173681 -2.1962908 11.275607098753264 -14.97132037093361 -18.123920488868176 
H 0.94921486 -0.5197676 -2.0375036 4.7771085457282565 -3.9951188565814375 -14.65123999658593 
C 2.48474414 -0.1431851 0.27330074 17.53318238975089 -4.079053641898277 -36.42588370712837 
C 0.96538754 -0.18027958 0.11521112 -22.069126951779314 4.538916229571073 -36.58001316929569 
C 0.11694017 0.23383735 1.18707471 47.581109810699104 -5.665774696222634 -26.26557094818072 
C -1.21150953 0.46026459 1.03603083 -44.23388918514176 -29.364912285451624 -21.720933132060047 
C -1.86207555 0.13082208 -0.18115261 -0.3665882757933353 15.323936117335457 33.20009945748498 
C -1.12935044 -0.21737586 -1.28849585 45.89117133501998 8.571262752087874 -5.045194224647895 
C 0.3157436 -0.33176827 -1.17937049 -21.7688521605511 1.1523405751208542 40.23834343298356 
15
Properties=species:S:1:pos:R:3:forces:R:3 energy=-170038.46758024147
H 3.00865632 -0.1215665 -0.82810859 -1.8099340790215304 8.698981607906447 20.29147447910799 
H 2.92798656 0.17656369 1.14176561 -6.8147001067294255 -7.292451990710463 -43.60245370770692 
H 2.4841568 -1.29478017 0.31861283 14.577714348415697 -80.02609858469941 12.594887560807305 
H 0.7414298 1.38222722 1.80536799 -12.598905122513013 -20.203124882034846 -15.105523296234711 
H -1.77085417 1.34596503 1.70707676 7.645529021499417 -12.31164234562858 -13.877713512248333 
H -3.01419345 0.34866411 -0.28329307 34.47876673451576 -9.191270472097129 2.336666301330278 
H -1.58307153 -1.14457438 -1.99762709 0.8122293116548679 26.43855970827235 25.68727448348383 
H 0.96087105 -1.22053603 -1.6775511 -34.27078676698256 -0.05737950880041892 10.899367425462067 
C 2.47986301 -0.28168951 0.15885012 -2.4313908723496684 73.09663115962181 19.115172018099518 
C 0.9943424 -0.03485923 0.08587937 -53.008738437785375 1.7488405787033197 -7.733253690881028 
C 0.21582179 0.7343525 1.02354979 17.655523547123366 -3.9307133580802147 0.013945255507417676 
C -1.20016195 0.7338164 0.94924602 -3.325664770573177 20.179301737209673 -13.104880733222965 
C -1.87730942 0.17431501 -0.18459436 -37.948794545116876 23.717101592263163 39.27153760462684 
C -1.15560384 -0.54110703 -1.11150329 20.607769712675083 -52.148966002911216 -44.688177228074736 
C 0.22793443 -0.74041519 -0.93699778 56.43138321100848 31.282231946806554 7.9016758541224 
15
Properties=species:S:1:pos:R:3:forces:R:3 energy=-170034.52611152187
H 2.94479884 0.30203817 0.88982813 16.639763468501943 34.546236394601266 29.699387341483362 
H 2.63259071 -1.31257445 0.4595221 -7.371773932156226 -1.158729778919661 4.2224881840467665 
H 2.8034128 -0.20214203 -0.7818617 13.958118108309595 9.976561487037541 -21.953029142216923 
H 0.96560181 -0.6579954 -1.93281314 -6.83275660380523 -12.956762197940607 -4.003267818813323 
H -1.55716465 -0.84456989 -2.01554584 -21.57533209485951 -15.681181309103028 -24.211272354454717 
H -2.87355583 0.14777709 -0.20138263 -18.23603038225102 -9.000675826927383 5.591681039771104 
H -1.77689973 1.56228587 1.54022058 23.448731316292353 -40.54515565564141 -21.066751235310292 
H 0.73618365 1.17605586 1.7628728 5.9471771454950195 15.983502827457588 16.111818151262575 
C 2.37065511 -0.25615184 0.20556489 5.612059374456051 -46.968615452840794 -11.72350119460324 
C 0.92065981 -0.07030487 0.10670522 3.2571326148299633 16.43506822526768 -18.403720893906673 
C 0.2945386 -0.49782582 -1.07349839 7.401685082234382 -14.046900530064729 1.8599531965860188 
C -1.08287731 -0.60970064 -1.09480686 2.179613790283219 27.12645805483864 32.41609505838007 
C -1.82553795 -0.04856726 -0.00124726 -4.08720023248807 6.760449979670851 -51.39783493485874 
C -1.17618162 0.75450615 0.91232249 -68.72122897998044 44.12375724126456 34.625309313627255 
C 0.17356052 0.7138044 0.96844648 48.380041325137974 -14.594014644521561 28.23264528900675 
15
Properties=species:S:1:pos:R:3:forces:R:3 energy=-170042.31654681815
H 3.16044245 -0.134347 -0.47593307 -1.4063802037441195 -11.179876951486401 -11.41176544296013 
H 2.8300267 0.5704307 1.07365599 -21.33189844967658 -13.191465828578842 -16.898629388784666 
H 2.53493666 -1.16306581 0.92324362 0.9420956893887414 4.719624684675741 -14.892809531083685 
H 0.82939762 -0.93734165 -2.04674544 -2.353445669138948 8.249110748371875 9.698395143401187 
H -1.67040391 -0.75041201 -1.99644107 -7.662737656526938 -12.723494596589745 -27.788459255569336 
H -2.92702169 0.23895759 -0.00551978 -16.907518303349597 -16.393845528226493 -19.663817027527447 
H -1.75646378 0.95906206 1.88988801 -3.9196176305476547 9.25849110976286 5.243341364063114 
H 0.81410189 0.89742691 1.77549278 0.7907410484703511 10.079653211361382 29.051119134292748 
C 2.41490029 -0.21184576 0.32947553 11.922491452782557 16.98408083922004 23.069113238839535 
C 0.94601815 -0.01813707 -0.05123467 24.20135414722138 11.23899131647792 55.20509483542483 
C 0.30824121 -0.46651242 -1.17718929 -1.4266648585663886 -20.735017797538177 -26.923879502172465 
C -1.08004389 -0.4327364 -1.16466133 -45.8760959920552 10.455060438277902 20.666010127555296 
C -1.86211236 0.03246196 -0.06931853 21.91704896002253 21.88078536659801 -8.126692512631376 
C -1.20345474 0.61161293 1.01785214 -6.508472493847536 -21.20479740662326 2.5883817207023068 
C 0.15629965 0.51205158 1.01966456 47.619098773746366 2.5626980226550997 -19.815401717728868 
15
Properties=species:S:1:pos:R:3:forces:R:3 energy=-170038.09680721813
H 2.76748435 0.29085874 0.94794107 21.087301514046988 6.087574799943296 17.141400160002576 
H 2.7432651 -1.42900417 0.23940524 -4.52590777269043 28.22510939625593 -1.3810439512635506 
H 2.67687489 0.11727339 -0.82678272 20.444632753838178 -7.445885375923454 3.4263635080250823 
H 1.07437958 0.69605579 -1.88251862 1.5614618802118136 0.40872642668245834 -10.12960710876831 
H -1.46114547 1.07051744 -2.16481078 5.462694541253771 -3.819734737975775 12.730250219091934 
H -3.02331774 0.32398366 -0.1977659 58.46816129877172 -6.151899662613354 -0.2036778087763238 
H -1.77409633 -0.5533564 1.98841556 -9.264964506855971 12.34377216688483 -28.581963267078148 
H 0.57325371 -0.76802985 2.09005121 3.3715086122327658 -12.775671908458953 28.697193055634468 
C 2.40259441 -0.33437508 0.14584515 -5.701549731375974 -21.52598415200737 -15.854849544654334 
C 0.92509012 -0.16705219 0.14796859 -1.4701180849961346 23.925572489709637 -104.36316520741414 
C 0.34439736 0.38562384 -1.13320765 26.85989378432172 -12.581499641191765 66.46756422280338 
C -1.01026267 0.64864917 -1.22984302 -17.441331063127286 -18.271986848024483 -7.072556893301533 
C -1.82802735 0.1917554 -0.16308136 -58.68490804130206 23.274390720207652 11.070546622636664 
C -1.23697026 -0.24060916 1.03421248 -55.04306306180331 -21.78139577558149 33.343890931768485 
C 0.10302638 -0.46276914 1.1818902 14.876187877474205 10.08891091627179 -5.2903449387062285 
15
Properties=species:S:1:pos:R:3:forces:R:3 energy=-170044.02706177477
H 2.74875098 -1.02166256 0.7696604 4.716037576009929 -14.170828315997484 4.424475012010711 
H 2.94717507 -0.1080984 -0.73750088 0.09764999154122712 -2.1977426224428624 -4.241464878254692 
H 2.81823402 0.73790703 0.81060877 -9.935999292319282 -7.684272166732271 -6.695165787774134 
H 0.63166176 -2.22444671 0.29364175 -9.69243876428437 -1.6231969097162073 0.6559902738457417 
H -1.84500655 -1.91161213 0.38353156 -25.7630709789582 -28.21675054369881 0.5367263220890637 
H -3.01451477 0.15163898 -0.28795859 40.52882215654624 7.085604482276713 9.985838165084694 
H -1.23596709 2.44532763 -0.58384298 -14.559699355076525 -58.173700588134736 11.54209666254425 
H 0.91621814 2.02802191 -0.22920466 19.034077274189162 9.772725964062026 1.6889032539054942 
C 2.40787563 -0.1383683 0.22944187 24.261444442934213 11.54387302247198 6.892225529289668 
C 0.93297559 -0.10763503 0.07179937 8.659457006603917 -16.818726395026093 -0.827853689764199 
C 0.11479297 -1.26225006 0.12741595 39.615486184999455 19.610791853609953 14.132399413341966 
C -1.24688285 -1.07233808 0.1339537 -8.567088662004021 5.650128973334464 -7.417954546993035 
C -1.85879523 0.1567102 -0.13622709 -35.94502971528956 25.542628032225767 -16.515657809412204 
C -1.02469784 1.29849413 -0.32264767 -16.770686412788294 31.101830619352935 -5.758607882672778 
C 0.34186314 1.11734054 -0.13883381 -15.67896145210389 18.57763578023566 -8.401950037240544 
15
Properties=species:S:1:pos:R:3:forces:R:3 energy=-170032.68705878523
H 2.7767025 -1.01041585 0.80387378 -7.068655542058387 21.689368947443004 -3.134819917162608 
H 2.7418426 -0.31005534 -0.86222779 7.504226585592624 9.300832036050942 36.31323189352725 
H 2.92722324 0.79692265 0.54092229 -1.4150817585836968 21.426375184097246 12.270246518714599 
H 0.79820419 0.029809 2.11876076 -15.450336340150269 -14.632301248651494 8.208252098391977 
H -1.93676495 0.15318931 1.93642093 -7.824657962970082 5.37829609990773 31.102303761950512 
H -2.86865149 0.50554652 -0.34397468 0.9373547768446381 5.155801682764765 13.233862488456115 
H -1.67418873 -0.00925204 -2.18445617 1.5402878596046323 -3.5383951372188567 -32.99099295995755 
H 0.81512628 -0.4775802 -2.08308243 4.075849553430501 10.64505031471391 6.539274195531648 
C 2.39269834 -0.09351349 0.24225093 43.257449746602866 -70.76641098150058 -79.28638934496729 
C 0.94335657 -0.13110671 0.03993055 -28.770499326911086 8.280210091138672 52.06499564296297 
C 0.16981609 -0.13406176 1.21921791 -15.565821080231593 41.03453688662595 3.015504975100928 
C -1.22060668 0.15450503 1.14452312 9.105928117198035 0.7123926661038041 -58.13748087008894 
C -1.78571066 0.36501533 -0.16827592 -11.797644655538726 -29.71941823060167 37.06104977757567 
C -1.06435207 0.0245964 -1.30753364 -39.85272747267731 25.393570326674546 32.31245904219587 
C 0.26441179 -0.15832626 -1.16386327 61.32432749984784 -30.359909823369016 -58.5714961164101 
15
Properties=species:S:1:pos:R:3:forces:R:3 energy=-170047.9887972689
H 2.87255486 0.39245191 0.85761342 -0.28111310893702796 9.14061931191483 4.149481925494923 
H 2.79801626 -1.27637088 0.39843618 2.615621215962587 -1.224527431329532 -9.308862416178172 
H 2.85673684 0.05735811 -0.88702122 5.746978535669271 -6.004866153588589 -1.2976107682494011 
H 0.56432647 -1.58951191 1.73916296 -19.830499591293528 17.589168558821616 -22.141486937860787 
H -2.06335751 -1.20122052 1.40061469 -20.75055916817425 -19.289172283543856 23.3672748969628 
H -2.97114417 0.22380666 -0.09254096 23.901169478392703 20.585830837492875 -12.728342233028037 
H -1.37438761 1.62787122 -1.77669568 -7.054754161929692 13.203888489862491 -5.256257326902126 
H 1.11190073 1.22489407 -1.56514843 -2.337224823043203 3.348619894392275 -2.654047746976011 
C 2.44938138 -0.26957099 0.08496215 -10.870007682170558 -13.305634307298499 10.671469221809978 
C 0.93346143 -0.20181087 0.0535398 -5.48354957599943 23.036894481004797 1.0933744377601526 
C 0.08284945 -0.8864703 0.9643238 -14.756278839068205 2.6946858342412496 -6.37081290019574 
C -1.35695316 -0.65397538 0.83325704 79.49114506507492 13.038987029308325 -12.555051088569535 
C -1.83274134 0.28557826 -0.08517421 -28.55738831170946 -10.485303618249093 -4.691808880386838 
C -0.98154092 1.0253817 -0.96702537 -3.1880170351318484 -35.67818084772148 21.3242641337789 
C 0.38710093 0.746345 -0.89006918 1.3544803739998037 -16.65101098112846 16.3984133108978 
15
Properties=species:S:1:pos:R:3:forces:R:3 energy=-170036.0962303476
H 2.61830116 -1.47865014 0.36143161 -7.5489166233739216 68.27343093563523 -1.2050420198926368 
H 2.90608202 0.04967019 -0.64369941 17.249143860292026 5.883898176988018 -19.752688385861067 
H 2.987317 0.25250211 1.10521389 -17.99860766395305 -3.9189037662776323 -3.466382596704021 
H 0.90131637 1.03380092 -1.85936416 53.16870213950172 26.57612206459833 -49.14523267333938 
H -1.53054867 1.37952582 -1.84272129 -1.9170421792300334 13.185065952390618 -21.353223069556677 
H -2.87226324 0.28103252 -0.26539436 -37.08258784524414 6.057993308116083 0.6571132463768236 
H -1.93734524 -1.31372122 1.54130603 3.0379478242279165 15.126071203329316 -5.885887984704127 
H 0.53580444 -1.49858176 1.72740668 -10.509266689957757 35.96365184900457 -30.61323084443807 
C 2.41738296 -0.24570164 0.27079305 5.310056841963013 -67.85695991169777 2.044466951429062 
C 0.91935432 -0.0221061 0.07617429 40.46516135366225 -16.53257710410437 0.8711029549739385 
C 0.40012719 0.64981806 -1.05359475 -61.96330598495978 -11.450643771792288 65.50050937202687 
C -0.98748172 0.85254422 -1.08135271 -17.003150027469598 -37.21527291960565 48.107361775484 
C -1.82847194 0.23011776 -0.0851337 35.71049209959784 -3.382852176364055 -14.181280142701766 
C -1.3167235 -0.62586443 0.91447001 13.908317181817674 1.5905583712309892 -19.5222584542746 
C 0.0929781 -0.7300798 0.94828215 -14.826941915232068 -32.29958221145139 47.944670685360606 
15
Properties=species:S:1:pos:R:3:forces:R:3 energy=-170033.26984277376
H 2.68310944 -1.23583992 0.54584396 0.7425658826332465 -25.208809921053817 28.562437537725668 
H 2.78523554 -0.53426387 -0.98838815 -3.4911306819455015 12.714598567098532 16.080544492801938 
H 3.09083888 0.52903849 0.48054062 -7.83785022211294 -14.910985796085189 -2.799117536347691 
H 0.67897695 -0.40618933 -2.09172867 37.410583575077524 -9.381081289555107 -30.312385673286467 
H -1.34735454 -0.29080977 -2.27262701 -28.35564576288111 -6.315142159523399 23.581765022041555 
H -2.94240225 0.32060962 -0.11366085 -39.549815415441564 -2.6251658895662606 -8.249116677477106 
H -1.78028365 0.66485601 2.01158106 -0.19323546864041222 -3.2439640721080356 6.531941078179789 
H 0.57630678 0.36351412 2.23552984 13.58126536553733 6.985463080716687 -16.2420118156053 
C 2.44323793 -0.30761889 0.07483806 12.655356133433985 44.154070384677496 -39.30384529904007 
C 0.96390026 0.03371709 0.03009718 44.56420200930012 -20.750108556176556 36.123128178270775 
C 0.31001211 -0.21606994 -1.12555858 -80.99351629671615 -1.0795987546623915 8.050534341737803 
C -1.13210506 -0.23543342 -1.16370675 57.20734181431256 7.356363001835274 -92.583189285469 
C -1.91132691 0.09078597 -0.13161491 36.70782689079798 24.619672680349375 98.65026123951746 
C -1.18278414 0.35613211 1.14688595 -39.808401481957304 -0.5814614210701293 -56.792375597283154 
C 0.19483796 0.32802316 1.18530746 -2.639547527218808 -11.733849854876476 28.701431180054833 
15
Properties=species:S:1:pos:R:3:forces:R:3 energy=-170035.4663618295
H 2.49826895 -1.43615457 0.41415783 4.747898215888611 -33.175775896178166 7.620809395963055 
H 3.07722045 -0.34584079 -0.86678143 -21.494992718955807 -0.4804318395462372 2.888221315606438 
H 3.11421807 0.14232266 0.81269062 -14.67458288388725 -1.1860012913481977 -1.8360209562245646 