15
Properties=species:S:1:pos:R:3:forces:R:3 energy=-170029.0998471111
H 3.17166921 0.50109829 -0.1236783 20.938324444326927 41.323950742888826 -36.37432065056127 
H 2.64618706 -0.15116468 1.23863342 4.1094746950264485 -9.055720454087146 37.58136433638049 
H 2.82410166 -1.23014243 -0.13270338 -0.30343026103308246 0.839631264398525 -0.7422860288662609 
H 0.44334131 -2.10516699 0.13389025 48.239982815509016 -80.95524985154401 6.365066411404164 
H -1.77850856 -2.0904918 0.01229443 -27.75346923394881 -26.64465896362573 9.10557592834721 
H -3.03190812 0.20082848 -0.02130622 28.15165608316954 13.568796457232867 -12.072555920402301 
H -1.51949628 2.16985199 -0.40049794 -4.689817886849681 23.267655256663257 -9.355686931843257 
H 0.87481646 2.17791587 -0.65331633 -0.8929149473041632 -29.744985718186314 23.04149665248645 
C 2.48074076 -0.22510124 0.1831258 -46.93408671560738 -39.7903604005551 3.939847737601782 
C 0.96088029 -0.04419452 0.01653264 20.65109842789494 10.439976794565798 0.3298242658871729 
C 0.0999343 -1.1568941 0.22179184 -47.31407714086881 66.4694781379725 -10.24023591166402 
C -1.33408489 -1.14426202 0.19590992 56.69018509695469 78.95609193648255 -32.11717566060807 
C -1.89293856 0.14790802 -0.1000732 -3.9461503764641908 -37.328115650395276 30.67524335606736 
C -0.99264376 1.23819068 -0.27888695 -74.5025619371893 -2.4064898161931834 8.991929210888035 
C 0.37346972 1.22870187 -0.24281488 27.55578693638384 -8.93999854979651 -19.128086795117483 
15
Properties=species:S:1:pos:R:3:forces:R:3 energy=-170042.0033081976
H 2.89143051 0.62980941 -0.50039172 4.871992016767883 -13.874165535677058 -0.44729288457937544 
H 2.91439709 -0.14968686 1.10109189 -9.629509612986102 -4.860685213089038 -11.554875070141865 
H 2.70232206 -1.1959151 -0.37777595 7.679315434757695 -5.815685007106327 -5.559456352831132 
H 0.80872994 -0.91934904 -1.85605752 1.8229342351548483 -3.0973195123865382 -6.768920299406351 
H -1.52422084 -0.82310424 -2.12383694 -19.631316044283626 1.3321679651879357 -6.275260626085858 
H -2.95419759 0.61623608 -0.23649858 25.537313182295133 -25.456099856280126 6.481897058373322 
H -1.64428702 0.87876482 2.02105309 -8.493586730254721 5.55827527506877 3.71769958020441 
H 0.69499848 0.73343496 2.03101447 9.571311887663565 0.7931838398262423 -2.2953783841315305 
C 2.45293244 -0.23244657 0.07421593 4.996707187875548 35.564530572799164 13.778857540702765 
C 0.96206991 -0.02276229 0.05833138 32.36401735547878 -30.37712557332281 -44.60698761848066 
C 0.23352579 -0.45770576 -1.0445573 -3.73679841398013 -26.34051720996472 -25.62973370302108 
C -1.16447595 -0.44270484 -1.17347738 13.721664205806654 40.68169109094107 37.87485978868558 
C -1.88231058 0.21323236 -0.10619082 -8.618010189384933 2.1494073707644734 7.9273453223170485 
C -1.16140205 0.50514296 1.12052663 -19.23616608276311 3.6077763408313994 -67.28275334379042 
C 0.23328551 0.45662984 1.06629339 -31.219867246326437 20.13456663822861 100.6400001780062 
15
Properties=species:S:1:pos:R:3:forces:R:3 energy=-170033.28195743656
H 2.86188692 0.80880733 -0.02556085 -16.08870175578115 -29.773370716577563 3.3062113763045384 
H 2.72331862 -0.58464041 1.19048386 -3.506616318992387 12.681325614353412 -29.142509176529245 
H 2.92537402 -0.93718132 -0.54886528 -7.092758540650544 -2.4121141654169658 -6.545238875395791 
H 0.87990223 1.40487976 1.62263125 20.273476087263468 7.070386840786349 2.9844732241337844 
H -1.58949739 1.92875206 1.33357265 28.923416879968826 -22.7270240258679 -28.585871733247572 
H -2.93495822 0.40261161 -0.27348491 3.0596104031062765 1.8492013571569579 11.00350622977001 
H -1.70137377 -1.38384719 -1.67041468 -13.429300026779966 19.170584249783712 28.544269573471492 
H 0.64374848 -1.69737769 -1.43722596 17.505607307134436 -33.13290016459809 -31.78937914871049 
C 2.38971312 -0.24175883 0.12342768 45.678233449691156 -0.29299029253926406 44.80654825658336 
C 0.89623225 -0.23345283 0.1179434 24.185402482503207 6.480611628358863 -49.032936606052225 
C 0.3761601 0.83642852 0.85338 -87.00071496030331 1.5240575269405146 -12.480556624604272 
C -1.01498741 1.15368016 0.66170506 -36.15406269191211 -27.75588475142063 35.78144214445497 
C -1.86371718 0.21350979 -0.06798549 17.136062779472052 54.89924075617259 1.720135408629505 
C -1.24314666 -0.74181409 -0.83777765 14.426515050054405 -58.62194687283554 -65.95708249211653 
C 0.14014925 -0.9816257 -0.86667373 -7.916168958953324 71.0408242015246 95.38698607166637 
15
Properties=species:S:1:pos:R:3:forces:R:3 energy=-170032.10157577926
H 2.59897575 -1.44265391 0.47557192 -10.646616784316402 12.922682886883832 -3.280056907301851 
H 2.76933182 -0.22691959 -0.84033872 14.420681996326431 -4.506333424675042 5.788252223015459 
H 3.07001305 0.22647344 0.85487209 0.18996853165716937 13.122025333913975 10.012748002094034 
H 0.6739977 1.39349208 1.7511165 1.170535813259104 -7.848592574973629 -14.240976745827142 
H -1.66263327 1.67312794 1.34106011 -26.23046827356077 31.076699513913425 31.2147433135843 
H -3.04516589 -0.01014924 -0.03748274 31.892611985738878 14.932743240647273 -10.442723156109606 
H -1.67639299 -1.49349652 -1.39488473 -8.699991927438107 -27.403657954322053 -25.336929584386127 
H 0.63825228 -1.62634027 -1.51028363 28.70095092253098 14.050331110352396 4.082529283385713 
C 2.41632281 -0.3598815 0.20758315 2.565081522958663 -0.9968509762131471 -21.39842182456694 
C 0.94481792 0.03217144 0.04862128 73.8091329212619 -36.64562464780125 17.016995674009102 
C 0.2272132 0.82261369 0.89781981 -47.35458004453474 41.03815364081793 16.55799162077401 
C -1.1991942 0.96906985 0.72071071 51.84647846961014 -6.604228729177422 2.692626063083394 
C -1.91322358 0.17513469 -0.14205253 2.575431369052944 -54.76431803749624 -8.735462206582485 
C -1.0990212 -0.77250454 -0.87051457 1.6683956647264735 48.12024334951266 9.147046461987127 
C 0.34058309 -0.74008073 -0.91578633 -115.90761098145161 -36.49327154556167 -13.078362217158988 
15
Properties=species:S:1:pos:R:3:forces:R:3 energy=-170022.26987973598
H 2.83847754 -0.3614948 -0.83577734 33.94320251705231 -14.845073119033803 -71.32982302042119 
H 2.74284489 0.73616485 0.50534912 26.940036313931696 35.913578183671945 11.116255280696947 
H 2.70376932 -0.9518302 0.84107615 21.151340593844825 -23.329396215272883 12.319230414505451 
H 1.13328686 1.28547292 -1.30224187 -3.058454227585891 17.720727103188914 -24.476729068114157 
H -1.39184714 1.76163118 -1.56544019 9.239178828198762 -22.692503589381815 5.6902524142655 
H -2.92666273 0.13288671 -0.36315727 -14.623398104234003 4.272514416537534 -0.03263260937998529 
H -1.90979517 -1.41103807 1.30824027 -4.801957425758693 0.8158828262992857 -3.745426447914821 
H 0.28495606 -1.61650844 1.65846336 12.453773670446912 48.25443560242435 -15.877452479622608 
C 2.47699388 -0.20775316 0.10548926 -72.69352908216314 -1.0106942511105617 67.0677900761141 
C 0.96664855 -0.11529485 0.10051068 18.60377009028056 -16.64037653798301 28.237554588139464 
C 0.36809851 0.71794942 -0.78450918 2.7210620517796418 46.98044994688536 -47.07396616625831 
C -0.9893096 0.90060961 -0.94539699 -18.28470833621186 36.957796781589494 -6.217358170203911 
C -1.86269948 0.12859848 -0.15047694 -42.801346211647626 60.864798127889124 -92.19594044958163 
C -1.32791553 -0.73037937 0.66519148 62.0799492722036 -51.43334316027661 109.66188204270901 
C 0.0765637 -0.6579879 0.9885638 -30.86891876431604 -121.82879611542731 26.856363595066142 
15
Properties=species:S:1:pos:R:3:forces:R:3 energy=-170034.05311383674
H 2.89257777 0.44780501 -0.49056969 6.60476234864837 -7.137639495620335 -2.971649755336402 
H 2.97128224 -0.21006178 1.1760063 -22.319032808234308 1.6234791351252862 -26.428615412975994 
H 2.70394757 -1.27775805 -0.11620639 8.816090922821544 -62.607988269305636 -27.854392091578514 
H 1.1634981 1.62291087 -1.15726016 -11.268874006850961 7.284217649363226 -12.53688786759954 
H -1.41480994 1.88894004 -1.35050515 -18.40702459134236 30.047562188065882 -25.335180498342467 
H -2.99114301 0.43222867 -0.24117603 -1.8571297566741856 -15.23545726576824 9.802886136559955 
H -1.93484818 -1.56131613 1.09852899 4.035309889312126 -11.234798253257322 4.778227960796198 
H 0.4136612 -1.72492227 1.33861948 32.16462391814363 -51.630376813729114 36.67887744158858 
C 2.41042685 -0.32194456 0.14685191 35.01250478756752 86.1196878689908 62.97971115023053 
C 0.96353438 -0.02421075 0.20151543 -2.249788308175903 19.22654077332827 -79.53457457508374 
C 0.39113665 0.95527622 -0.74862714 0.12153005577663333 -31.56190665481412 63.2067709784027 
C -1.01957344 1.07076192 -0.81520879 16.013933367154134 -30.84778861908758 30.110844714036023 
C -1.92801352 0.18003261 -0.10575953 71.16160600422087 20.78181859678233 -28.28294663198032 
C -1.25954715 -0.8684575 0.58428716 -60.55165717830585 21.976127750382652 -3.187099209641819 
C 0.12279508 -0.95928586 0.71539622 -57.27685582988231 23.19652259536496 -1.4259735248962506 
15
Properties=species:S:1:pos:R:3:forces:R:3 energy=-170035.02417673642
H 2.62418144 0.46570182 -1.12885915 6.749870084293539 10.404341686295949 10.52003038759728 
H 3.1319391 0.43220986 0.64062052 -1.9894069085956931 8.29345808387072 3.3086209646711264 
H 2.82323815 -1.00938069 -0.34918738 -2.6609349956143684 -15.34655565379838 8.849168215093986 
H 0.9872891 -2.09602511 0.54677621 -24.4372317406957 14.2550121237341 -14.593878275101208 
H -1.73897293 -2.16762504 -0.18505747 15.258378000776988 5.334707689878678 13.149542311299145 
H -2.89922757 -0.13572423 -0.53947444 31.291615348747897 8.416377921913908 13.094133637078091 
H -1.64713514 2.16370744 -0.32890365 -29.684877635157786 26.3243888579106 -1.7592852904813243 
H 0.62910623 2.14455184 -0.23203974 11.743049454555605 16.405294630430927 10.737421030955899 
C 2.46595496 -0.00027115 -0.12234858 -26.457754593552846 14.539229712170993 -25.08995863502134 
C 0.92782158 0.04728469 0.08950974 15.709741809009165 -14.772899306856637 29.786770494403566 
C 0.30445781 -1.22230271 0.27297903 -22.558533085005834 4.411560234992744 -4.605153821589215 
C -1.12183982 -1.2586415 0.03791197 14.065069680139954 19.888027327724764 -8.969123500520803 
C -1.80042571 -0.01378238 -0.19494158 -63.533997110376895 -56.79032887015681 -4.083467267833534 
C -1.2362224 1.22936615 -0.04451244 20.435373863106726 -22.244530043521717 -4.841391904661684 
C 0.13209569 1.23544779 0.09373001 56.0696390141903 -19.118083208768795 -25.503427160068945 
15
Properties=species:S:1:pos:R:3:forces:R:3 energy=-170035.87387568812
H 2.67751422 0.78435546 0.73961819 8.390496191751927 -44.24075508900128 -2.7766818021469812 
H 2.66430756 -1.17468799 0.95638323 -11.621123334549424 28.988773406949385 -6.5682710775829145 
H 3.00648565 -0.40250915 -0.58026121 4.717174778393569 -0.9344364712490807 -15.402046149671646 
H 0.58886771 -2.17167326 -0.85124906 -5.159795528049543 54.283132015764394 16.620425098874822 
H -1.72340517 -1.89802806 -0.86727385 -0.3517394246484472 16.720504837740428 3.2617003975012704 
H -2.95886376 0.1232118 -0.03359532 -18.382463865826235 4.778277765280153 1.844554124475532 
H -1.54893728 2.20782759 0.68445463 11.867318756949766 -39.13883237130752 -8.922144828119666 
H 0.8453101 2.03135819 0.46371509 25.16318308464575 34.30072163348164 17.015324852154517 
C 2.37888312 -0.26535392 0.30526023 61.98062727298673 31.76626038158697 34.38919692758572 
C 0.9796864 -0.09363799 0.03260672 -37.4973927906112 34.140495865314016 -9.220553137020614 
C 0.21459219 -1.08206033 -0.52131315 -26.18025112388151 -76.69642573898889 -9.654791317698528 
C -1.19576086 -0.9716179 -0.50953157 0.4799409096329658 -52.56206810925544 -28.16951454813057 
C -1.88269261 0.12805462 -0.06453769 13.676637394848136 -0.33910094393432666 12.781151587515057 
C -1.07842743 1.17427657 0.3933408 -44.364566664471475 75.83212228189586 -0.93299688449857 
C 0.28570034 1.15241124 0.32128445 17.281954342828993 -66.89866946427631 -4.265353243237424 
15
Properties=species:S:1:pos:R:3:forces:R:3 energy=-170033.06334446606
H 2.84060076 0.70611181 -0.0729181 26.56788179414586 72.39699199887365 -2.5550008582419492 
H 2.82216527 -0.62143927 1.08771348 -0.8354393869989737 5.148027439983589 3.5362227130615786 
H 2.70992026 -0.75798043 -0.64588655 16.228938138567095 -32.486060871768565 -27.467697034119894 
H 0.830131 -1.06019642 -1.79393608 16.02216059357509 3.8862154233084594 -22.44622160204507 
H -1.71604228 -0.35329055 -2.18677859 14.261109615555455 -5.794381732005072 -8.031594407982322 
H -2.91682308 0.42507062 -0.31362131 12.301134785335112 -11.818748712704162 12.658988303299566 
H -1.63634258 1.11764123 1.85161038 -0.2494350854995148 -27.541305689763384 -23.570862583339583 
H 0.56195005 0.68543882 2.16913609 13.358583588669012 -4.218389986509893 -10.764681870995018 
C 2.37344324 -0.17769836 0.17788597 21.58414037359328 -62.49685904992829 25.60176255617508 
C 0.93797699 -0.14587551 0.12755076 -11.17307033867921 6.094750203095964 -12.063351577438988 
C 0.31526888 -0.42623962 -1.08939676 -65.32343190096672 -5.622092606330903 -8.550015210575806 
C -1.11265121 -0.1998205 -1.27837292 30.238277786982376 -28.266067655203738 22.95016352966019 
C -1.85178392 0.10230203 -0.13519259 -16.521404298203784 48.09271688555912 -22.020727665764408 
C -1.15099588 0.49608495 1.00871571 -51.57615633219671 29.03546273901516 47.88817935652405 
C 0.19539906 0.3394844 1.18087007 -4.883289333878357 13.589739242735972 24.834836351782574 
15
Properties=species:S:1:pos:R:3:forces:R:3 energy=-170044.8798319718
H 2.95032074 -0.32516905 0.83261217 14.52506270812787 -23.63742509032448 37.469888857257544 
H 2.4497323 -0.88225433 -0.80213582 20.346749155550782 10.546316482736136 7.00371523826517 
H 3.01703412 0.80249595 -0.36356345 0.6797861447868427 25.279164683745577 -20.74861560747895 
H 0.90976329 1.7158707 -1.19372818 -12.303499312501929 -3.0317791831437684 -14.401934165580489 
H -1.65076455 1.52525623 -1.60903822 -1.978888675912803 2.158389965192083 8.585601700182746 
H -2.91610685 -0.29935075 -0.3631568 -13.786980414871627 2.2463553562461436 6.920506175428819 
H -1.67909808 -1.69356358 1.27811273 -8.421701072591866 -13.991954326051829 10.103918667436917 
H 0.74531124 -1.5390358 1.58680928 1.3413865380038084 3.352300682920763 -0.7794235724020864 
C 2.43325317 -0.04385171 -0.0468284 -24.86577205124495 -25.612857097886593 -21.647960076497508 
C 0.94559246 0.07704613 0.12243853 7.527749717693019 12.602289455779864 -7.696382957080677 
C 0.24886888 0.93382261 -0.77088729 4.8797698170122 11.057960318048593 29.834662249010545 
C -1.1462434 0.91640552 -0.83362523 -17.331643802142544 -26.5690189965295 -1.1484060208884044 
C -1.8893211 -0.08841539 -0.07826543 37.66743597122321 36.77039910996124 -46.85505055703383 
C -1.15305132 -0.92059625 0.73643502 3.0359793612906456 -5.301536717743559 20.99974404543294 
C 0.2398117 -0.8159234 0.92400505 -11.315434084422664 -5.868605828771721 -7.640262790231693 
15
Properties=species:S:1:pos:R:3:forces:R:3 energy=-170039.28866581223
H 2.82373251 0.11983128 0.95768809 8.08266179135196 -10.028354592887666 14.301045696761136 
H 2.84259329 -1.36156798 -0.07143037 -9.76378724501314 -6.132683432554025 0.7639320062499686 
H 2.89874459 0.32073173 -0.68161723 3.826828319476233 -2.8164139221326563 -17.208122752828753 
H 0.96851403 0.84970993 -1.88674017 15.659929024306779 9.899222238381606 -17.947637517909225 
H -1.45768425 0.89681498 -2.13676456 -7.590690727201753 8.032428040178047 -4.051402666734845 
H -2.99788989 -0.03425784 -0.12938022 -14.555595228434418 1.7395437416983743 -11.099447453183162 
H -1.69853977 -0.89716623 1.86925285 -21.814501527559052 13.849582279561048 3.551828118034165 
H 0.67106037 -1.0060329 1.92917152 -10.630676977808688 3.2680397968161228 9.206933982300995 
C 2.42195215 -0.34811435 0.04510878 14.266495614748882 33.2245605740332 12.903655202370905 
C 0.95215943 -0.06304236 0.06916913 9.343426728042985 -7.98540786404028 -8.350709523998109 
C 0.37814636 0.57017129 -1.03833218 -66.52338200528548 -10.743339463799227 8.836221420907762 
C -1.05113223 0.62748002 -1.1605424 -5.915602288488556 -36.23016750085858 34.133704668180435 
C -1.91869601 0.03483237 -0.10794115 53.74457360015842 53.1769530823436 -34.9957088182642 
C -1.26478704 -0.27637248 1.06790586 29.963027377299486 -59.00190053764453 25.047497940807553 
C 0.14244121 -0.45154054 1.13726434 1.9072947302273997 9.747936375083917 -15.091790302694626 
15
Properties=species:S:1:pos:R:3:forces:R:3 energy=-170038.5980203403
H 3.03002331 -0.11342805 1.13346354 -27.047750368694988 9.94296124768357 -20.018141542057368 
H 2.79257928 -1.154547 -0.20503295 9.322648771665353 -1.6394948341799784 -13.48729734834564 
H 2.82385278 0.56191809 -0.49389132 31.086660410704436 63.21252458212057 -55.62011441440132 
H 0.67263834 0.80561065 1.97280867 12.829017254059009 8.727989162347132 26.656096207619694 
H -1.61410023 1.09152622 1.89260417 -24.423501118797706 12.725216408749333 3.488003671845752 
H -2.9025004 0.52046485 -0.32123016 -32.633777413716146 -0.6190804079508536 -10.716635959651988 
H -1.64643128 -0.70596683 -2.03651413 12.890634887279797 -1.1558268889977086 -0.7744039919120439 
H 0.74982049 -0.9598917 -1.98161458 -2.705240827376583 5.473742835944469 34.28480198593172 
C 2.46183495 -0.15528612 0.1257255 -8.498478242071736 -92.30781555039728 84.13086201270791 
C 0.95932835 -0.23776717 0.12865709 3.510343354541691 56.74143035348131 28.307484826896562 
C 0.1724619 0.4356696 1.10622341 -14.131661832651014 -20.36219921796627 -19.302830570358005 
C -1.22379137 0.65627881 0.98366114 40.45794919005714 -12.831668749919094 -6.835225483224145 
C -1.8775507 0.2653982 -0.20868536 31.00645503257899 9.00129838297682 55.03103765057025 
C -1.0897062 -0.3964804 -1.12524696 -46.913870838405806 0.55915968464768 -38.71242298117893 
C 0.26964586 -0.57154692 -1.00696834 15.250571740827555 -37.468237008539695 -66.43121169280036 
15
Properties=species:S:1:pos:R:3:forces:R:3 energy=-170035.50383111293
H 2.51962744 -1.28573624 0.1670104 8.430033837085967 -66.23112099268985 9.58768689049536 
H 2.80732893 -0.08740728 -0.83537583 39.74363312221583 28.08178987874896 -57.191378291383906 
H 2.97154935 0.12903849 0.9712288 -1.6277291177561182 12.300927266651966 -10.686922841688604 
H 0.78240303 -1.8927242 -0.81683671 -9.542069540655662 -6.989732036484263 -6.667398602148141 
H -1.84150055 -1.77854656 -0.99477808 19.484201899427696 2.8854405652522805 7.805046854502253 
H -2.93563964 0.29383056 -0.24660842 11.772156617964198 -14.159935363863884 6.009484926564896 
H -1.66192826 2.05557606 0.83079194 12.867144958168703 -16.984844507974017 -6.7869779823032 
H 0.67431653 1.84184907 1.15290455 27.590411725122028 22.82431708527412 6.311955858371322 
C 2.39963146 -0.25762312 0.09835535 22.68241818138091 21.562777807439698 58.09188486502808 
C 0.99262122 0.00168255 0.04782059 -49.551406027308616 -18.41616015668497 -7.860498218280981 
C 0.19452424 -1.01639335 -0.50334429 10.745385005104524 -24.17233829203337 -1.0685089562350643 
C -1.1958284 -0.98753698 -0.5198445 7.95840909045245 -69.16183027639416 -47.789349473041504 
C -1.84003329 0.10206017 -0.09051713 -68.53908568140946 60.912542840686335 6.874271012823868 
C -1.1212744 1.1406168 0.43829911 12.943656503734147 40.91152218289904 17.555940667276264 
C 0.29207182 1.07806223 0.51012826 -44.957160573526615 26.636646370814194 25.814764475840416 
15
Properties=species:S:1:pos:R:3:forces:R:3 energy=-170038.45944555878
H 2.59988823 0.13398323 -1.06230742 20.392629757662814 -0.6994008107178119 -27.103951171375133 
H 2.93763002 0.9394015 0.44956107 0.3404717530641374 8.22255310021336 8.404375041280737 
H 2.98240129 -0.81920348 0.37647974 16.101534711146904 -22.587936703676068 9.283551065939582 
H 0.61398864 -0.24135157 2.27839744 10.48104296322884 -0.6800482112381302 19.132034393381446 
H -1.73482842 -0.22368485 2.05700406 -40.78103917822096 -3.478320257179632 48.6552620892947 
H -2.89826159 0.11918131 -0.10343744 -74.89450069531576 3.444041728187036 0.5100880380993842 
H -1.57814118 0.22344032 -2.31073039 -3.1344546842802705 -1.75620096993925 15.938059793311735 
H 0.70358645 0.04484079 -2.22373288 25.780839321519696 -0.07826774653538171 7.215654662272802 
C 2.48003754 0.05127455 -0.00254413 -20.839053435415067 7.75677445133933 14.145749386684017 
C 0.98946787 -0.04400789 0.13231586 -45.93280314032223 7.788035065768457 -56.80506625412332 
C 0.16865597 -0.1315068 1.3063287 24.741634374986955 2.8922851243329624 -58.45071075625071 
C -1.21606785 -0.09854305 1.16985441 17.043846219966113 5.81958042924424 -48.441943555409935 
C -1.87635297 0.06811518 -0.06368729 77.21097483586539 -5.919847527835202 -16.99646318258811 
C -1.13644673 0.11791115 -1.28883633 23.47932194183018 -4.773794175903151 29.67226879996983 
C 0.28639462 0.02203594 -1.20815845 -29.990441188253612 4.050546503939237 54.84109164951297 
15
Properties=species:S:1:pos:R:3:forces:R:3 energy=-170031.98722666243
H 2.64386788 -1.35959773 0.10630664 -1.0562558673610718 -25.188835951345744 -24.00649884703138 
H 3.14710471 0.35617165 -0.2081149 13.774076310243078 7.873350146783482 -21.32301309257479 
H 2.56989091 -0.21673098 1.31088958 5.593691006445005 3.240685276914327 -11.492351469641514 
H 0.75046005 0.16297732 -2.26614299 11.275688920405477 -5.546083848889198 33.18224573580814 
H -1.49414854 0.05086605 -2.41113942 7.371866426197857 -0.861733782885154 59.34360435877603 
H -2.93397774 -0.0106952 -0.0806387 -6.823291380211675 2.24306114537883 -13.506360607489961 
H -1.82807626 -0.21873259 2.02678047 -6.429034341939209 3.1743148729389734 13.325384156828775 
H 0.78898226 -0.21481933 2.03095623 1.5708950866371116 4.542407286732114 32.71015021821914 
C 2.40276282 -0.31476359 0.19345639 -18.400136156882954 36.964000997305035 63.3406703335159 
C 0.9331744 0.1093027 0.05749658 57.7639840008784 -26.16979811135618 -76.4732482889231 
C 0.30501603 0.11264851 -1.21904777 9.51404384604152 7.039486715955371 -21.166099322590174 
C -1.07116313 0.04964123 -1.28320008 -29.868675154088717 20.24278229529459 -66.97005351963647 
C -1.84473034 0.09113662 -0.12590811 -11.559228219203744 -23.674962255552995 37.14119942211192 
C -1.23083292 -0.01774359 1.14647878 33.61790571592086 21.065630634421304 -31.751825381987327 
C 0.19996446 0.09160943 1.18807694 -66.345531378903 -24.944305421694757 27.646196304614836 
15
Properties=species:S:1:pos:R:3:forces:R:3 energy=-170036.9303859204
H 2.77603172 0.91919539 0.77131247 10.946668641187866 31.884731019063505 -0.0087145988710895 
H 2.85600403 -0.72981003 0.87465031 1.7126682934993853 -27.390077931696975 10.334599993085256 
H 3.01784961 -0.08562495 -0.74449484 20.820616289783324 6.153863382266438 -22.23692774479229 
H 0.65341449 -0.16462974 2.08525156 24.707166114626908 -2.6254587873647584 45.928621935312094 
H -1.74924928 0.09532774 2.06949352 6.35167612014653 -11.131637751312784 -8.889877451622018 
H -2.88739332 0.03124368 -0.1335729 -44.57612188246002 10.249703506899666 7.120823367359223 
H -1.82250802 -0.20969926 -2.17011972 20.823654363304584 7.033985692120429 4.90625987337106 
H 0.76548934 -0.04479846 -2.07393063 24.677705576546444 -4.835528019586499 -46.88924845019526 
C 2.53012387 0.04442404 0.19957543 -65.37296957518632 -7.897287130429122 -11.588305737086177 
C 0.97224297 0.00832185 -0.0002899 9.391017284104143 -10.74428337735228 8.939964160986161 
C 0.1951802 -0.06838938 1.15001245 -5.878604671836224 0.19399202246811054 -10.994004245724012 
C -1.18110588 -0.03741513 1.11321051 -16.772626416020447 35.614971842656225 42.434444879098 
C -1.84167827 0.16849911 -0.07442368 -14.294757287751285 -39.499225917953694 -3.684956689467095 
C -1.18712492 -0.05061624 -1.25862199 10.50169878003868 8.861130777811574 -17.690687884437732 
C 0.20944565 -0.04888049 -1.18635074 16.96220837001644 4.131120672410156 2.3180085929838743 
15
Properties=species:S:1:pos:R:3:forces:R:3 energy=-170040.24495555507
H 3.12038006 -0.14447284 -0.68828414 15.252637441090643 -13.840164488809355 -44.304972041956105 
H 2.80851888 0.89885105 0.55481621 10.114854309128193 39.76935950982072 28.247379115510125 
H 2.5539187 -0.82586178 0.82822443 22.67150388446847 -7.636325864357149 12.699491206965497 
H 0.60814958 -0.35018086 2.17631009 18.541586820420566 10.098757974242336 -2.0249957698447254 
H -1.67013515 -0.23870738 2.07225925 -24.97434701208803 -2.9735257242320428 35.17013953674843 
H -2.87919627 -0.12392769 0.05881836 -50.15015079013221 1.1585744363625632 -10.691694585579919 
H -1.76062255 0.23203244 -2.17983119 18.24365165411719 -4.479308563024189 12.315088341589853 
H 0.70100408 0.10332406 -2.20334229 10.886746732063644 0.9494157627090893 2.4706071601800947 
C 2.46442211 0.00083151 0.12496322 -45.93609023626326 -31.2383150643476 9.624134286182095 
C 0.96072576 -0.00416458 -0.04634659 1.2062978043809325 5.550535421097944 46.61931644790614 
C 0.19892889 -0.07383162 1.19282135 44.5005506929845 -8.238394483574211 -18.392104590934675 
C -1.15261802 -0.05411658 1.17382034 -16.596054104726143 -8.746773753545517 -41.61653429880912 
C -1.84254763 -0.0186085 -0.05528699 20.761549357633665 12.665928913885018 32.6512160980267 
C -1.15167139 0.13020243 -1.23305973 -40.191384919540226 -8.44315613278708 -22.064186821299387 
C 0.23055389 0.05746272 -1.20879628 15.668645994819961 15.40339205655948 -40.702884084685 
15
Properties=species:S:1:pos:R:3:forces:R:3 energy=-170037.72711451014
H 2.95805962 0.36280162 1.07768591 -16.384861747977837 8.76287127425242 -24.30939074530933 
H 2.83862723 -1.23478233 0.47530753 -16.199273639266618 25.705067728287304 -25.572987422659523 
H 2.8451199 0.19234128 -0.8336876 11.625241691044089 -9.883156734842958 27.533188744699753 
H 0.65912772 -2.16246686 -0.16444147 10.300104458841142 -29.475468753263495 -3.5074060758093886 
H -1.8544859 -1.89519204 -0.34552741 -6.169676305922171 -39.285501833271 7.798529582030419 
H -2.95017691 0.12138731 0.03755327 -47.80734430742289 0.07722185237232539 -3.9276491964959317 
H -1.69171328 2.22763216 0.12582278 16.990608784081296 -14.666454080613155 -6.95058689791663 
H 0.96801125 2.07439518 0.15027366 -0.23667090775445998 22.436494312000228 2.8637234386057804 
C 2.4694629 -0.1648828 0.18821157 25.93310348718079 -19.608579111537093 5.693611845290375 
C 0.97655997 -0.05708016 0.04775889 -25.08800440193663 9.84509662253292 3.6921166769461586 
C 0.1756623 -1.21393705 -0.14846589 7.941247888266791 45.14725480221472 26.266888395363434 
C -1.20621161 -1.08688643 -0.07278139 -7.433411724334804 -41.98656382727955 -41.55094653672449 
C -1.91478195 0.06926271 -0.10950603 69.6601561555328 69.03887249207747 25.853209979990588 
C -1.12344906 1.252405 -0.00282016 -2.5354336251528418 28.568883660934713 5.551184065210406 
C 0.30616786 1.22755988 0.05377332 -20.595786990999706 -54.676037218043795 0.5665141467783776 
15
Properties=species:S:1:pos:R:3:forces:R:3 energy=-170029.42924077605
H 2.90648166 -0.67211723 -0.55599649 18.558815614405876 -12.516816660565652 -26.31230415562522 
H 2.72816394 0.80869994 0.31796826 23.492781010708512 52.64715907009266 -6.572706048297007 
H 2.85594158 -0.56726973 1.11946649 22.03720346338516 -47.87182688429214 86.52459002279814 
H 0.64847063 1.14713312 1.82742292 15.713723796083478 -3.6312686415845836 -10.031889525427431 
H -1.71860838 1.38356077 1.79495514 31.797345494501208 -42.29442312992149 -40.87396248707064 
H -2.84331863 0.36485883 -0.22011008 -67.0595260892407 10.931183004140982 -3.681815449514787 
H -1.657049 -0.74382589 -2.09182395 -22.12562302390005 -18.270715647862584 -30.966899599929253 
H 0.77007106 -1.36802353 -1.65017637 4.583621683025975 -3.4122972987709166 -17.206922701929646 
C 2.43953748 -0.19762281 0.27783643 -47.92310178634492 10.003480810615253 -74.28953155781883 
C 0.96417034 -0.13643493 0.07710028 -23.311671748090113 -16.79650173697167 -24.372222659281785 
C 0.22299105 0.63700063 0.93342931 20.31715106222892 18.978618795484152 77.33168548929886 
C -1.13464682 0.67830711 0.98521649 -72.73896025809853 51.79655658937147 7.295405870937417 
C -1.8281467 0.20691248 -0.13332275 39.420249050432474 -30.295994068960017 -16.618884717335355 
C -1.18335704 -0.52622732 -1.17663158 39.503486572973934 42.93360320461135 66.52643786612244 
C 0.20977853 -0.69146034 -1.00902879 17.73450397210772 -12.200756219565774 13.24902083889415 
15
Properties=species:S:1:pos:R:3:forces:R:3 energy=-170044.7814956681
H 2.45195513 -1.33570797 0.57733862 -0.7884381839979527 -36.23086476363395 10.463936308811324 
H 2.87984923 -0.38509666 -0.83583516 23.246767018928292 2.8341324602101934 -10.641805908330552 
H 2.84471589 0.28916384 0.90537092 21.14379402870459 12.464484006139346 -0.40911181852258677 
H 0.75333157 -1.41562186 -1.52960616 -1.5031704750265982 -5.2476067623675515 -9.087305983483027 
H -1.65896375 -1.32673963 -1.6699714 -10.813959850405414 -4.271413974606337 -8.336625527428245 
H -2.95420451 0.17351052 0.04534514 -3.350995093948513 -10.660130400962876 -4.708492196690737 
H -1.65870175 1.57525207 1.45973462 -12.130348094926918 11.789037966382871 20.799873908037085 
H 0.86753073 1.67377357 1.40222692 -18.237536374980138 -21.34414560944534 -3.958141398886896 
C 2.42103771 -0.36375791 0.14420285 -23.637108476105055 40.2271635121567 -2.676536843123815 
C 0.99139085 0.0585834 -0.04225724 -21.25387853973993 -27.323466806049172 17.917407381969554 
C 0.197157 -0.71946955 -0.89221189 35.2341691299779 -9.078472802507285 -17.630400742431174 
C -1.16781996 -0.67789052 -0.95133664 -19.993817980750553 -16.59349984619188 1.9856620857306915 
C -1.86350965 0.04153636 0.01354138 -20.206829386984268 11.292944988274861 -7.635008417174433 
C -1.14683931 0.83511298 0.87783249 43.23971104956753 20.4645723347359 -4.264327508032158 
C 0.27272686 0.88904841 0.8205301 9.05164360132911 31.677265697864506 18.180876659554976 
15
Properties=species:S:1:pos:R:3:forces:R:3 energy=-170042.37297906703
H 2.81674436 -0.33539825 0.88428384 17.465872815506668 -15.114792859355587 16.649222762990266 
H 2.83842821 -0.38951478 -0.86619812 26.707190864873404 -39.20515534244102 -49.825250053230306 
H 2.85488817 1.13780905 -0.0941997 -20.564218063098476 -22.432202825632764 3.6330533022596407 