15
Properties=species:S:1:pos:R:3:forces:R:3 energy=-170038.2573247603
H 2.66355544 -0.85480475 1.04125129 6.27399179756605 -2.6810038310061652 15.444140425182047 
H 2.87410112 -0.77533588 -0.72195702 3.9797624740286257 26.633189702463504 23.119077808635883 
H 2.71889504 0.81719319 0.35700973 27.58367507575658 14.578062979803384 -0.761177343958835 
H 0.94010344 1.60178946 1.25449852 7.27714422682056 7.879133396027501 14.256411392569028 
H -1.46878053 2.1001759 0.95394755 -1.8218266782973715 -4.611648563461164 15.915002688882632 
H -2.8925804 0.43641944 -0.19030094 -59.897826284585875 8.620442308351407 -5.772644446400781 
H -1.9195614 -1.61838506 -1.3315503 17.961908874204447 15.261385242951036 6.772202652063198 
H 0.58360031 -1.81196494 -1.24885578 19.81806744344151 -29.680156881571477 -24.973590458260333 
C 2.43972282 -0.21049433 0.18972704 5.202826602186717 -47.66935386969911 -50.57942749555136 
C 0.99043668 -0.15458742 -0.02851385 -52.50179045381726 51.92875191964076 68.65249167719618 
C 0.29744086 0.85732505 0.79658929 22.859779063671173 -13.011734490016531 -43.24826319095525 
C -1.05500814 1.11198816 0.69596388 -23.151960626256688 -13.911734718073827 -38.37259631476411 
C -1.87865291 0.24038354 -0.10963878 86.44803460185396 -28.014086611917286 3.7368719348850163 
C -1.26436673 -0.8672215 -0.79337158 -3.4099197275725848 29.543262142494704 19.545247966904046 
C 0.1767679 -0.96848922 -0.76026708 -56.621866388999855 -14.86450991180779 -3.733746110606312 
15
Properties=species:S:1:pos:R:3:forces:R:3 energy=-170041.68132236355
H 2.72140123 0.86392331 -0.36588295 16.054202664073895 25.922490388814172 4.272579636695093 
H 2.85276975 -0.227167 1.1681623 -9.630103709330422 14.625360638066041 -9.930974968545053 
H 2.72858832 -0.77357028 -0.44526113 28.147180794539864 -46.499769084919336 -32.64504627112151 
H 0.88006498 0.90102045 -1.92190041 25.929325461326485 3.9793237202414025 -2.5890137633201173 
H -1.48170903 1.09800669 -2.02761546 -6.3211910326818455 10.565450891143254 -14.78284241633195 
H -2.94360998 0.22309219 -0.17213124 5.9693567423496745 -6.324071392003913 -0.7804101755128151 
H -1.94042878 -1.1237221 1.62081247 -2.762729431713285 -1.292287617571442 17.994120517112908 
H 0.53554546 -0.9542255 2.04564732 22.38544827340943 -14.618322790154773 25.498634071398794 
C 2.37719253 -0.00420693 0.17109616 26.908945271912227 -5.746670222197167 30.574033529744394 
C 0.93492938 -0.09189798 0.05820973 -10.556301095948081 13.587473138716016 55.14794774754953 
C 0.37622788 0.52437959 -1.03957155 -57.9869681621136 1.6233783403363293 -32.83000233721491 
C -1.01511756 0.6386338 -1.17272483 -16.53948688334261 -28.26066268287357 60.04668240055919 
C -1.84266927 0.09135757 -0.11080992 9.472149974287989 13.963678423196864 -36.905745166751224 
C -1.26073086 -0.58868486 0.96495132 10.157739527276641 14.067768608841899 -10.438501633183892 
C 0.14882039 -0.57009866 1.1371469 -41.2275695798674 4.406859640364224 -52.63145998525741 
15
Properties=species:S:1:pos:R:3:forces:R:3 energy=-170040.26318625527
H 2.8309535 -0.69773095 -0.68311738 2.564087804921655 17.811102082609562 17.137970765535954 
H 2.78069574 1.08347264 -0.27700414 -2.4859540561645335 -27.45387628982236 16.807943724249817 
H 2.92916835 -0.24756376 1.06900166 -11.0418936286889 8.401542114800531 -4.569355070014942 
H 0.63875746 -0.1978452 2.22000719 12.8042454523966 -1.8979291156017541 -6.502066688554076 
H -1.89900221 -0.19097603 1.96571011 11.79530621643493 1.0894197245699113 19.194368262514345 
H -2.88677834 0.14345414 0.02865509 -56.12472633090774 0.6319939991477735 -8.160673400541288 
H -1.63662379 0.19665398 -2.1620885 -18.3922172439341 5.258757037668252 -32.98961029261728 
H 0.96318609 0.04337376 -2.04413838 -30.75798876287451 5.592444708525083 1.4829368105093306 
C 2.43895828 0.04383572 0.10790301 49.60719297844352 -2.1155083045067737 -56.221337543212194 
C 0.98368664 -0.04264485 0.00233299 -34.341728511092356 1.053610300606221 57.72897737776323 
C 0.24842834 -0.1490751 1.18878163 -67.27898836196762 7.267612597248398 21.129153882063896 
C -1.20274127 -0.0852432 1.12934535 52.48896817084092 -17.38652952928207 33.48456369669955 
C -1.85516978 0.02074188 -0.05184446 4.155630407621279 13.468821070619358 -3.822471612951211 
C -1.16254705 0.14435687 -1.21820869 51.015918736217714 -12.836191471390633 -14.95228319985231 
C 0.23717696 0.05698084 -1.16807119 35.9921459429321 1.1147322606295489 -39.74811671159283 
15
Properties=species:S:1:pos:R:3:forces:R:3 energy=-170036.42241398912
H 3.06425491 0.78105656 -0.38242762 16.247439318535353 17.59492216253947 5.9219582892980585 
H 2.72860628 -0.31838518 1.11428227 14.582144575845605 12.927117857597928 32.263156160543495 
H 2.81743948 -0.97890506 -0.44293045 -0.8514574576957593 18.60324595737798 2.326393533604023 
H 0.7179256 1.16477093 1.81481649 16.108725529973178 14.749846945711722 15.840729973453072 
H -1.5074766 1.17365996 1.86893598 -30.45451581228375 11.088451334618512 22.63909539526629 
H -3.07184198 -0.09912555 -0.06359641 -0.4239476256359629 4.874290137956097 12.886523645711412 
H -1.73541886 -1.41864156 -1.75586108 20.6212845151426 32.25020225143099 32.728409490693906 
H 0.72281074 -1.24252138 -1.93687845 -7.149274771729075 17.156691322397823 25.701669165167893 
C 2.52748726 -0.02225688 0.1061117 -37.143158398480814 -49.08779980259187 -53.81633356079033 
C 1.01098104 0.10117668 -0.06850412 -31.704745914797233 -20.07478821345102 -8.770357362519286 
C 0.24225207 0.74882404 0.95012827 -10.040196201858507 -44.87342382032455 -40.62449775604496 
C -1.16515955 0.63125051 1.01865726 -4.325903637516315 2.9985346901037637 -34.55594589733041 
C -1.98115178 -0.00766181 0.02794139 72.57537505890602 -23.03507305987729 -14.087236232963097 
C -1.18281122 -0.72759407 -0.96317602 -26.41179809889383 -5.09835932544888 -26.133602109731317 
C 0.23485639 -0.64491369 -1.08925439 8.370028920488489 9.926140376138273 27.68003607982021 
15
Properties=species:S:1:pos:R:3:forces:R:3 energy=-170030.88198663163
H 2.57160152 -1.31163793 0.33850795 12.081848014123059 -56.24919485123772 13.123902488630659 
H 3.21813978 0.01129346 -0.44048129 18.61733469723203 19.46682962109575 -54.42698871020545 
H 2.75496229 0.23799157 1.05303643 6.533738782886357 12.506712279428006 42.08511860027929 
H 0.84060376 2.10539901 -0.50914997 27.3382836400258 22.294922694715872 -6.179060893684561 
H -1.50848051 2.18116188 -0.9142902 -6.289709855538059 8.213249148282134 9.03884622059475 
H -2.82930686 -0.029618 -0.3555509 -67.34676633552525 14.074766138837585 -10.814769766180206 
H -1.92422193 -1.89067037 0.50303226 9.02110159445419 -4.437545131585774 -7.507499451681099 
H 0.53556622 -2.07145849 0.67056666 34.52695375856333 -58.75662175491317 18.9712833064902 
C 2.42947515 -0.29109177 0.1872444 -29.96172890325352 26.830155764116363 9.952316189919797 
C 0.96160507 -0.0691573 0.0037129 -27.860948496144886 36.027804767622875 11.846766106570978 
C 0.29817559 1.22458875 -0.26347805 24.949596555204458 -65.54873671399002 -0.8373117984314749 
C -1.07470753 1.31150001 -0.41026641 -20.907647253852705 -33.780154494793905 1.1764755908812687 
C -1.83842578 0.15137331 -0.12192638 61.332410056101125 -18.75715722847273 -10.810098817077849 
C -1.2187119 -1.09427317 0.19137763 -43.02439440721934 35.63947327712002 26.236027402626995 
C 0.13554199 -1.16842784 0.38438658 0.9899269671223468 62.47549529795365 -41.855007654554335 
15
Properties=species:S:1:pos:R:3:forces:R:3 energy=-170033.16294584022
H 2.89854607 0.69871838 0.01283295 18.2144069354672 7.897524294638431 -26.869181134758293 
H 2.58143918 -0.07149021 1.39201304 1.6852082355244473 -31.924210559166266 -24.542728310101943 
H 2.84767305 -1.16986137 -0.22455887 7.363758967702601 10.5268453011518 11.417960172107302 
H 0.60201989 -1.91211528 -1.29978928 20.422108083058983 -26.781266734009236 -15.956017867240675 
H -1.81942672 -1.35171012 -1.44344152 -36.94956125442121 -46.91263284123321 -41.412742651212334 
H -3.00787149 0.15496051 -0.08920621 10.820563687813646 6.798287157624141 3.954693031283531 
H -1.59076957 1.93087093 1.19110426 -0.9549523611754271 13.998878335142628 10.120196432942896 
H 0.75102468 1.68048965 1.21171276 51.621317140933485 48.179765636944204 36.57787157648562 
C 2.42965934 -0.25340315 0.25253245 2.345908590567082 14.511753052701405 42.735780980162886 
C 0.98286994 -0.10291605 0.01070567 -46.1309490939164 -36.14192462767963 -18.685707952955006 
C 0.20224071 -1.1140373 -0.73276548 -33.92906753017745 104.51391745124089 39.896496127505436 
C -1.20123648 -0.81229924 -0.82359207 36.58574068495052 25.94896147203629 58.86045224574901 
C -1.89536359 0.15341794 -0.02270476 36.09013507929264 9.264357366480136 -19.167734721808852 
C -1.08994304 1.13983241 0.65007674 -28.322275572810167 -52.475468784047 -30.001370900839657 
C 0.29797733 0.99287373 0.60281078 -38.862340406988906 -47.404786521824576 -26.92796584149887 
15
Properties=species:S:1:pos:R:3:forces:R:3 energy=-170039.83619965878
H 2.69981264 1.06866288 0.54646726 -7.996501219930747 -15.056775378832125 -18.79449873322856 
H 2.84846322 -0.61510332 0.9327403 -6.017361149956076 0.9891265379159262 -25.846082009679783 
H 2.92497534 -0.09620915 -0.9205044 -16.02325984968524 2.4873473958942283 38.05754145001171 
H 0.73024424 -2.17835584 0.45683238 13.624148212043687 -27.51648289779597 5.013458095979101 
H -1.85902228 -2.06144989 0.43891643 27.335972474806077 30.92560693944632 -17.368732727015455 
H -2.90004949 0.037254 -0.09610862 11.146755783835237 2.514748162816839 8.138991848526183 
H -1.68784318 2.20057482 -0.29828305 9.441702833096793 -4.632664869869154 -13.844082441547151 
H 0.83418385 2.05674664 -0.28549649 1.859432621146584 -8.161088437907578 -2.6670573896777015 
C 2.39511123 0.05100023 0.11934152 48.21497029217415 1.061108247083551 14.873302774867954 
C 0.91120413 -0.0855497 0.06504982 26.325208260253767 33.8244496541667 -19.014584747825985 
C 0.23560163 -1.26806555 0.21663518 -45.42350248739775 18.42573447581481 -3.5167290008773575 
C -1.18039675 -1.1515734 0.13845351 2.3979436039107043 -82.81519830484585 37.22868692728422 
C -1.78023314 0.04773784 -0.02211419 -71.97259376123999 32.57589274514989 -37.38000836521331 
C -1.1144639 1.24942641 -0.34960763 -34.19409379079699 -18.052544734255335 35.792018482369144 
C 0.23184434 1.12253897 -0.2327003 41.281176991918755 33.4307392793967 -0.6722241639729992 
15
Properties=species:S:1:pos:R:3:forces:R:3 energy=-170036.32813309584
H 2.67760101 0.90823559 0.77968112 23.272083112451067 10.441349975337701 1.284794414378298 
H 2.77539866 -0.89102875 0.82347279 3.718919790061309 -20.321747304605342 30.998370104683623 
H 3.02618327 -0.25928686 -0.66156685 19.938290724424846 16.036663184974387 -26.666365417882812 
H 0.58105957 1.65945503 1.39635603 10.687253685760593 -7.8184134293389524 -9.87638688248821 
H -1.71523164 1.68032085 1.43356158 -1.3764073909715435 -20.351971511439782 -9.12359210750743 
H -2.95049983 -0.24950555 -0.02931292 3.1680240922870295 16.561091356989692 -3.845569035295895 
H -1.58276453 -1.48199889 -1.56563069 -21.484284754905474 -10.38182413044303 -12.683744689288371 
H 0.92913595 -1.60796078 -1.35804736 9.161214651851294 -36.495561366002555 -30.187264951380882 
C 2.51147904 -0.02519372 0.25146599 -65.43084357136316 -0.39724649313081634 -13.145018404006562 
C 0.98130433 -0.02344368 -0.01677754 -8.275171537511882 2.207261207983512 26.79484557081327 
C 0.14797609 0.89700926 0.70467602 25.087322554834856 14.260604455789625 24.97192556551098 
C -1.24769167 0.88846315 0.78525581 22.56734492120274 29.104438391829785 5.863607593060516 
C -1.86966267 0.01480757 -0.07390642 -57.87333211704384 -7.755816307933718 9.632672197717248 
C -1.13170329 -0.76032369 -0.90739011 68.24889511236108 -67.71596697508413 -23.5116165922119 
C 0.29436778 -0.97092956 -0.81195411 -31.409309273438943 82.62714013089467 29.493342633898127 
15
Properties=species:S:1:pos:R:3:forces:R:3 energy=-170038.6252085832
H 3.08794812 0.73652351 -0.21418118 -16.115405259928387 -24.316564962640953 34.03039949606821 
H 2.69908225 -0.71052451 1.04611421 24.938973970269473 -5.550733453212717 36.904770421850955 
H 2.85974113 -0.89650749 -0.69087062 -14.865843960485158 -1.8687899350249029 9.003290562335023 
H 0.89823066 2.12745204 -0.19408357 0.17079736279760974 7.814611687063718 -4.41725217601618 
H -1.75347293 2.11415105 -0.47257711 27.08541797423862 6.844389508271877 10.70451212527207 
H -2.91526089 0.16296519 -0.46430752 -26.811399632623093 0.36674717581357286 1.6438313817472088 
H -1.92859983 -1.9268882 0.13376694 -28.003754553138698 -67.05721610984202 4.17809341570606 
H 0.60206198 -2.19280125 0.37089669 -0.8458876562401181 22.155160640348544 0.7191435453218082 
C 2.49796275 -0.21231174 0.13222211 -5.816657380364497 43.36409537660321 -71.78157340631455 
C 0.98805801 0.01503269 0.09487536 -24.893762171227696 -46.29844038763623 -9.50918909467695 
C 0.29917771 1.21224331 -0.14089599 18.427364979753815 7.464508695459508 18.895362299805942 
C -1.09653522 1.25688258 -0.16338226 -43.607660647922316 7.141941654377216 -35.54603769357823 
C -1.88534069 0.10313907 -0.18056832 53.647212948952536 -26.32164486800889 14.835711061871299 
C -1.24472607 -1.16133857 0.06816441 19.25835872364928 97.01574329626986 -7.5985622073087455 
C 0.14351462 -1.16440121 0.23036573 17.43224530226863 -20.75380831784179 -2.062498546262888 
15
Properties=species:S:1:pos:R:3:forces:R:3 energy=-170040.72986151697
H 3.02970755 0.87739281 0.26147649 2.0487169340598945 18.025049101649003 1.401010806045345 
H 2.89778109 -0.74581734 0.89336687 -6.596192419944959 4.76670889515002 -7.197012369600003 
H 2.85964312 -0.45007121 -0.85623093 -2.4116588101350906 -5.621800894353452 -13.8740647408881 
H 0.49798945 -0.99955633 1.97632587 4.2115288259345585 -3.016199866234206 -3.9508248830296884 
H -1.70535031 -1.158662 1.72999541 -38.8689537309655 -11.250985896363769 31.05875685565809 
H -2.95948909 0.31368376 -0.22227845 -18.565857019780285 -8.9337646885548 -3.23682542940781 
H -1.44271717 0.9086735 -2.0226344 -12.805585430179201 7.210884104202536 -23.999960229780708 
H 1.04782577 1.03930954 -1.74340556 -17.69398565276818 -5.166398179636728 -1.3180815969759787 
C 2.49846992 -0.05982908 0.09547222 -19.8213177789301 -14.463678681653255 42.2057640335552 
C 0.95070961 0.05824575 0.161344 32.98564253539553 3.0374236913253423 -42.092381754189404 
C 0.08900307 -0.53014549 1.06207222 15.108383496598988 -15.489634449632904 35.7545441656561 
C -1.30906136 -0.54743653 0.97069993 25.83796980790034 18.17510645434247 -24.114779724254923 
C -1.9122004 0.06942072 -0.12601687 33.792487033678015 -13.505786670103433 -7.472701533070115 
C -1.01077664 0.43774415 -1.1611087 -38.07076335468073 39.58473547362034 7.129909128217881 
C 0.33926541 0.59014728 -1.00379771 40.84958674963778 -13.351658393757164 9.706647272064123 
15
Properties=species:S:1:pos:R:3:forces:R:3 energy=-170031.65526800105
H 2.91448829 -1.1638798 0.33770626 -7.406708220187564 -15.678904532693657 -11.829437703617755 
H 3.00238136 0.46851726 -0.49621388 -12.705412011450917 -14.645382040615976 4.9973000983988225 
H 2.67705714 0.24340265 1.14904089 22.020501173944517 30.54872929443208 58.258852025845336 
H 0.99495617 1.94816776 -0.60413399 -16.874980559653334 -4.52617221078381 17.630087685674884 
H -1.48795791 2.24816868 -0.5200018 -2.6674475248020157 7.766946424276629 -14.372613554383516 
H -2.89254047 0.09023895 -0.39058942 -57.57094656435277 8.922059449004314 -0.5124573085503894 
H -1.90015359 -1.88731585 0.26483176 0.23468347168044368 -12.515878676117831 -5.639766083208672 
H 0.60450332 -2.27689553 -0.03036859 -3.209362999790779 7.278698838212586 15.105379811888081 
C 2.4292812 -0.18839929 0.2348916 22.753745317330843 17.960961403188254 -34.03601435872362 
C 0.96508264 -0.07765931 0.18531999 -40.933437341660316 -19.089596229767547 -63.930908016151534 
C 0.2875829 1.15196187 -0.21899034 91.23311779412026 -17.100470360759882 11.048529483265389 
C -1.05396272 1.26133022 -0.34956473 -47.715704056945576 22.400926795530037 9.129924391896003 
C -1.90240624 0.18340633 -0.08367999 83.78354688638413 -28.952716146386965 2.9109274170057606 
C -1.22106139 -1.03787445 0.13295578 -27.918820120679623 -21.366922860107454 -3.194189233679136 
C 0.16713138 -1.26500562 0.12344122 -3.022776429758367 38.997719666768184 14.434386530161397 
15
Properties=species:S:1:pos:R:3:forces:R:3 energy=-170036.62801002726
H 2.96917023 0.41933561 -0.59308126 1.2047882541886754 11.923692689502712 -7.313178956783094 
H 2.69197188 0.22190533 1.18845115 9.170086964921577 7.929941084587945 -2.2424634915713693 
H 2.95421872 -1.22850623 0.16327359 -29.526681992621857 38.06066490264831 -3.72667505970574 
H 0.63180623 -2.2650144 -0.27685966 -9.126425033987637 27.1374672174348 -3.809435882186496 
H -1.82240071 -1.96515839 -0.70874607 6.321205262534404 11.339877413655183 15.467128751990447 
H -2.90615481 0.30018112 -0.0631042 -33.095680799410054 -2.8403105878627146 -11.563798373517146 
H -1.34030565 2.25118341 0.29911449 -38.994130186460275 44.6015067536035 2.439057205415609 
H 0.77967733 2.12463451 0.55589907 6.342101801016693 -25.90104125772419 -1.2188924097163305 
C 2.44325562 -0.15149773 0.17513526 3.676205330143563 -53.82103889870304 26.329803316809144 
C 0.91222577 -0.11299863 0.09374796 42.43723511602054 25.213085991747672 7.699415101496704 
C 0.15787508 -1.2290336 -0.2021184 8.287977218993568 -27.777269848174097 -3.3892484950891406 
C -1.22381961 -1.08246865 -0.34123161 -39.00073520968955 -17.309664609044756 -16.7700472552442 
C -1.85862517 0.15429179 -0.18016864 45.24071410217744 13.61007251622115 6.881970548879112 
C -1.01551023 1.28283823 0.0826726 -108.22015014192517 -39.082463182038765 -3.206843130066862 
C 0.25244901 1.15083818 0.32461182 135.28349049991914 -13.084521371674764 -5.576794242352728 
15
Properties=species:S:1:pos:R:3:forces:R:3 energy=-170038.0066293615
H 2.61494482 -1.30422567 0.40616001 4.497398263089295 -38.27406881564844 11.74214348727604 
H 2.86832064 -0.26600008 -0.8822244 14.764446774436834 9.573177184169786 -46.72000569878967 
H 3.14522246 0.28049293 0.79235071 -17.860128667958087 0.6548779737040786 -11.645328313751582 
H 0.61231821 1.12493997 2.06706741 0.8833987334056065 -14.96653676883183 -20.21697882932168 
H -1.79137029 1.03631581 1.73119877 -35.816330185465496 25.94466998566883 41.06398556649596 
H -2.94928115 0.25369736 -0.11798339 7.921073514801851 -3.9120224467445075 -14.440919218306838 
H -1.59718957 -1.04816042 -2.01600009 -4.94840276754437 5.349988179884509 -3.2519861514879405 
H 0.87382215 -1.16796331 -1.67666965 0.4151654349652201 7.293825171482367 0.24281583241767754 
C 2.46941887 -0.29785311 0.08841155 -23.52009284105263 31.21345314028565 63.66985781350108 
C 0.93204241 -0.03399012 0.13642023 68.30245509157058 15.675472766584944 10.251683828047403 
C 0.21506217 0.62496171 1.13327658 -57.56604319432528 8.637363974685663 9.387085101513783 
C -1.23971583 0.65096614 0.94296862 110.05281759623008 4.281036912399082 8.238038737260245 
C -1.83484094 0.18022622 -0.18297766 -67.4777912604216 -12.600662509304001 -6.505436791968369 
C -1.16052774 -0.48977322 -1.18097671 83.88097157192652 -3.721909244919659 12.14631991860289 
C 0.30161754 -0.54288881 -0.96256645 -83.52893924947958 -35.14866668923752 -53.96127528148898 
15
Properties=species:S:1:pos:R:3:forces:R:3 energy=-170041.22087172538
H 2.80935406 -0.15713366 -0.96399232 4.380577102688509 0.7005463138487784 -33.21557679378454 
H 2.99932797 0.85305871 0.41582617 -2.7040953242456167 19.605076196165587 10.149149439615439 
H 2.99348288 -0.88283578 0.55185722 -5.310960437600485 -0.2999486904404142 7.652341563411843 
H 0.67581532 0.20160718 2.18902291 -5.792202192921515 7.765740444272289 9.262883390919276 
H -1.95292385 0.57539214 1.92771562 -0.8534935124326841 -1.3736574719645964 22.565944466546764 
H -2.94022188 0.35008488 -0.15495877 19.234481031055964 0.30022617256530676 -10.185815026374739 
H -1.49240151 -0.14213671 -2.32960737 -10.110349374972353 -3.6098527134839067 -2.584164941060778 
H 0.85212891 -0.80742293 -1.88615436 23.757274837678157 -8.976080712600906 -35.623586832559404 
C 2.48545085 -0.02919711 0.04659071 -13.814623089287732 -30.286394847588202 28.35117521753562 
C 0.95989256 -0.07471053 0.12342488 -21.087358433457226 -24.389670830160707 -32.057278653725824 
C 0.11674319 0.1393715 1.24425999 49.77312847495028 11.058785649496992 17.66644851642522 
C -1.24804063 0.30089091 1.15936732 -11.77862290013103 -11.57162834988751 -61.758941585797515 
C -1.81977535 0.18779462 -0.15237169 -42.796860250628534 19.175252827243973 20.666451252984608 
C -1.0985133 -0.08693818 -1.31360839 36.500582132313646 -28.325696666529463 32.96347954003552 
C 0.27321948 -0.43632353 -1.08659891 -19.397478063009373 50.22730149324174 26.147490445828495 
15
Properties=species:S:1:pos:R:3:forces:R:3 energy=-170030.81834319571
H 2.83097451 -0.18059763 1.05039028 10.09506177004024 -4.939299219370012 7.5901191614573165 
H 2.1745979 -1.38965153 -0.14147585 33.41202702328214 -28.83726935257913 -4.360050540372743 
H 2.88025978 0.19758641 -0.7076984 12.312462933792794 -1.4572661564936351 -9.594980875752684 
H 1.0289533 0.13641201 -1.99852569 29.068776009675865 -1.809743161833036 -48.809029876042814 
H -1.42940266 0.35524619 -2.34891407 1.6594925203089828 5.069339912797728 32.1660623190731 
H -2.92797761 0.48152038 -0.16805913 22.183965419390265 -8.674292813717294 0.6342162277890067 
H -2.06015587 -0.40474695 1.91521135 43.03949820988923 19.38991845383762 -18.333611596171547 
H 0.57317533 -0.4177683 2.1902595 10.29007834189257 -4.472608674111186 25.469934830430216 
C 2.35866483 -0.34624227 0.07858079 24.39853721412576 1.9327507506336696 21.54751984803375 
C 0.96338436 -0.02021009 0.07959048 -73.84400554659882 18.724005229474354 45.18570623547012 
C 0.39758033 0.10206811 -1.17322558 -79.33281898222387 17.240138735264534 39.56576945180184 
C -1.01876158 0.28469045 -1.2808157 3.567932753667349 2.6123376774846925 -9.758576747334601 
C -1.81274675 0.28922024 -0.09450878 -17.9869059818657 -5.324238075858696 -52.158051763769876 
C -1.23934749 -0.08773165 1.12559927 -95.13726994657883 0.5466148837962368 27.878127485646242 
C 0.09356083 -0.11914439 1.28236251 76.27316707538097 -10.0003893751469 -57.023155346078354 
15
Properties=species:S:1:pos:R:3:forces:R:3 energy=-170016.39018234637
H 2.3178381 -1.39591768 0.13047286 22.229383551294145 -16.690990937712865 10.964396665833775 
H 3.07732611 -0.04950275 -0.69498022 19.908889477396702 15.061821047385191 -36.55492593923489 
H 2.73501854 0.16703346 1.04499024 17.33556886980662 -12.918078343760083 1.6543982330930078 
H 0.66287729 -0.87379938 -2.05608457 21.844802812761525 15.052067669277324 -0.290636437761864 
H -1.62467659 -0.58774607 -2.06317961 -45.75649882458444 -18.181977101486172 -72.70615689048783 
H -2.73418922 0.76175227 -0.22481689 -4.85881161583549 -44.79644624708781 8.002987661055371 
H -1.75364696 0.74197418 1.97655622 -8.223557490639786 7.371029236538994 15.371090291251482 
H 0.64249093 0.54344139 2.19554354 13.091682544974873 11.378149787932555 -5.614260258318447 
C 2.42769175 -0.30966701 0.09484301 -36.4399973492244 4.229227205054304 50.034848666492046 
C 0.97723969 0.01459696 0.01442719 -42.80430839262191 28.310514599670498 -22.927126584188883 
C 0.27911354 -0.26244125 -1.21896362 -40.87350831760981 -41.450206295535956 45.84736473391836 
C -1.16544351 -0.36524019 -1.18683172 81.3757538528608 43.17199711034645 65.18112626045456 
C -1.84786429 0.05292132 -0.05099648 -19.035897509495612 61.542244647751126 -0.01788811048719351 
C -1.1503164 0.42911893 1.13676941 -37.5713429627161 0.17201282937032256 -30.70257534536927 
C 0.20071439 0.49894815 1.18492216 59.77784253945394 -52.251364021922825 -28.242644132071252 
15
Properties=species:S:1:pos:R:3:forces:R:3 energy=-170036.219263772
H 2.89669032 0.37879668 -0.5417421 17.02255717471742 -1.0424742551580781 11.579741737487998 
H 2.68535818 0.14060317 1.34009633 2.1181989324613935 11.258311898789346 -18.561063931110134 
H 2.82518126 -1.24635903 0.34026588 -1.8238105569082481 -5.709173374884238 -13.999787859885332 
H 0.64175154 -2.1552763 -0.68444314 15.40327466027587 -33.02987247461076 -7.351664778848846 
H -1.84939295 -1.83429248 -0.63604791 -1.301810946396278 -9.984557478354422 -1.6917966572590741 
H -3.02116808 0.08292529 -0.2428789 17.844248152502704 14.604206776416651 10.4738402861921 
H -1.35704297 2.43296944 0.10563494 -7.807790844403966 -34.66641817184797 16.563554307303374 
H 0.92196562 1.94560592 0.40994737 -0.33948396413236204 2.5943096401140058 2.5125377923860714 
C 2.45646911 -0.20950932 0.29162163 -23.4609808477032 12.122960429806918 10.424442538856004 
C 0.9403793 -0.09991657 0.0487427 42.82580139909062 -71.66801325379176 -6.692004388864035 
C 0.22775675 -1.22802328 -0.39608815 -72.37080788434479 69.90293878496118 33.69795693731025 
C -1.20476534 -0.99976801 -0.33943762 15.799525063727586 -45.935155809278584 -23.395178452009148 
C -1.90994837 0.16682027 -0.07281785 9.942817763336938 24.467224712426066 2.436130599072725 
C -1.09426892 1.31953715 0.23374866 -25.073989182987464 3.1948639658546227 -40.70074367769598 
C 0.27024059 1.0723617 0.22666741 11.222252266584833 63.890848609557004 24.704035547064016 
15
Properties=species:S:1:pos:R:3:forces:R:3 energy=-170039.03752537424
H 2.84012511 -1.19466432 0.68625076 -10.644608003463548 30.573447734147393 -21.200061237363343 
H 2.90982297 0.14258763 -0.63423537 22.417722764833357 0.0218831415930175 -8.475073692075995 
H 2.8068077 0.53449343 1.1651398 -10.47646569398916 -4.073202800854604 -18.903936971793538 
H 0.77620329 1.33537242 1.64469407 13.741969019586714 15.612004066710494 24.943878526118 
H -1.78291773 1.31003318 1.65171619 14.032414540160083 -8.640551461658784 -4.659392090437325 
H -3.02234605 0.09264718 -0.04338331 16.93629225104411 0.6238853548314708 -14.45101055541297 
H -1.70139316 -0.7293561 -2.15556001 11.03152599527892 -14.31126747418239 4.764407216498669 
H 0.97976439 -1.19608899 -1.66958826 -28.31279849100615 -1.0937610154213275 -5.702583767328565 
C 2.47179302 -0.14209198 0.32018908 -10.099190798924324 -39.68519823268399 18.59646543263381 
C 0.95650305 -0.11632776 0.07568241 -16.63349759009198 19.742318380809 24.378641508606755 
C 0.23864207 0.72050502 0.96266546 -17.7917601555193 -27.153590826204727 -19.179757761399813 
C -1.15066775 0.7130536 0.93999631 -55.44266340971153 -5.887127167697772 -34.22617973667452 
C -1.90337467 0.0675597 -0.15007635 37.49001816952272 13.19034997097404 31.253892009615072 
C -1.146287 -0.54891212 -1.21097671 -39.86081002893059 20.502064438764645 28.29443368045824 
C 0.21399063 -0.71844497 -0.9915521 73.61184905956857 0.5787470766945785 -5.433722561444483 
15
Properties=species:S:1:pos:R:3:forces:R:3 energy=-170019.18421221408
H 2.76426033 -1.0698825 0.52392836 9.967125908970148 -10.003276849395245 22.21332160521864 
H 2.81505647 -0.23308765 -0.96365646 -17.491154520219098 8.01995320276835 39.5492889108969 
H 3.03570365 0.70803145 0.46993249 -4.791695330421857 23.38512031789232 21.8104804083902 
H 0.63267879 -1.62257402 1.39284859 34.93097247569099 -64.70915169661231 57.223234187978406 
H -1.86221667 -1.76269672 1.09649355 1.6633986148363158 27.30152911668801 -1.648058833778156 
H -3.00648184 0.41172946 -0.10859137 57.3215636549793 -24.46882201337577 7.801905614549943 
H -1.52452826 2.1176684 -1.24891306 22.29424914836143 -52.28897589387727 23.486415523330635 
H 0.91274021 1.33518918 -1.70354841 12.949691147040037 7.012321927421024 13.721744841637818 
C 2.40044128 -0.1101098 0.16719108 20.23449222035816 -52.39820898540119 -91.27939208881976 
C 0.90451615 -0.14390756 0.05683853 28.61420218387068 66.85427706757768 -48.8717835258262 
C 0.11692138 -1.04401058 0.74464344 -28.323898961822895 74.55703262696252 -37.82271449398463 
C -1.26442674 -0.87890222 0.70589723 -29.560920203698867 -40.17998325017765 -14.036019436141595 
C -1.82236414 0.15245565 -0.05943915 -59.67352349034693 55.44421802110355 2.503406970327643 
C -1.02586086 1.15859144 -0.71055535 4.218392358151985 1.701764668976366 -31.286828189182973 
C 0.37463292 0.87568612 -0.85907302 -52.35289401992836 -20.22779707472935 36.63499969122417 
15
Properties=species:S:1:pos:R:3:forces:R:3 energy=-170025.34772291442
H 2.77984138 0.60703218 -0.43138264 10.767092645182652 -1.1284699974538204 -1.8170952523216406 
H 3.05109053 -0.23148148 1.00853538 39.30406586175473 4.933769735829953 89.48869202717324 
H 2.79677862 -1.17187124 -0.39583294 -8.523471792269852 9.497154196875522 6.190364139900267 
H 0.97660659 -1.58166489 -1.42151217 -30.730221577248518 27.324426135275825 2.071451495164334 
H -1.49208993 -0.95005369 -2.00578089 -15.584637688598233 -9.376394924779145 9.418218833090933 
H -3.01471584 0.03594357 -0.2839567 28.138349985206215 11.16614632958841 13.288352151366091 
H -1.63432754 1.40573971 1.57152625 -48.47187367862484 48.18583704070253 52.48013143240203 
H 0.76545033 1.50542695 1.6502158 -37.23904033084165 -32.34220536314855 -30.4081940847424 
C 2.46707426 -0.26411014 0.18443563 -44.958815979707595 6.754337072175889 -91.08550441860375 
C 0.95448585 -0.10500026 0.16736383 -1.2975929809337028 -10.389662407560717 -14.346516004791061 
C 0.3207371 -0.79490157 -0.8849241 -32.65370632222445 -8.590700730682908 12.496810673689321 
C -1.12390036 -0.59230173 -1.02877489 66.39419510301128 -33.142659471811186 -34.26786016063967 
C -1.88403204 0.10068801 -0.10093008 -56.74509691215724 -16.3031254748813 -53.100933652512474 
C -1.23102623 0.88571643 0.79644748 43.429326206552844 -25.73368514760367 -3.5195678564627966 
C 0.14179882 0.80197688 0.89230476 88.17142864671939 29.14523182165212 43.11165067728756 
15
Properties=species:S:1:pos:R:3:forces:R:3 energy=-170032.54365811264
H 2.86508038 0.82935833 0.24878227 13.072412952968453 -8.16323240235974 -8.858679685708356 
H 2.6551039 -0.75282475 0.87026792 15.289055191251212 -42.61733050164414 40.855278690661216 
H 2.67800193 -0.5800023 -0.94359791 9.839784144244378 0.06903257222485715 7.081918950464039 