15
Properties=species:S:1:pos:R:3:forces:R:3 energy=-170042.5692750044
H 2.85083715 -0.67760099 -0.76437171 -2.8483267381373865 2.19631726554491 9.029726070925744 
H 2.81348203 0.90818699 0.00513828 -6.409173025230558 17.81626396162519 -10.177345892460284 
H 2.99739597 -0.38692631 1.0196042 -14.430320349792783 -13.265314020073735 -0.3010858928240549 
H 0.72123164 0.32834375 2.17023344 -16.204850555648544 -3.7505468231938206 -20.617693849013648 
H -1.85029974 0.59022464 2.0292809 17.935202998415114 -8.838505312243418 -18.915997957657986 
H -2.93578979 0.216264 -0.09758214 5.183028133993533 4.309481201842656 -12.641933825008095 
H -1.52444154 -0.30631923 -2.23480647 -15.58330482574191 -0.5342313546071242 -21.696003616198443 
H 1.00462329 -0.21303999 -2.07636677 -33.4233468709925 -10.556226389222147 34.62534488825865 
C 2.42152141 -0.110257 0.10136288 23.801355363441527 -14.572444559684834 4.016648623502584 
C 0.9153856 -0.19090616 0.11455356 47.78850754009846 24.71456089467319 -44.77146929838434 
C 0.16801892 0.17790554 1.1786424 -1.3587208700622635 -1.2466429938476733 96.89431403528218 
C -1.2176848 0.28803095 1.13222025 -18.387998092650477 25.56011770684132 -0.43372116270162075 
C -1.82518782 0.20154404 -0.13656473 -32.175121991868735 -28.73400805584563 26.44605409728654 
C -1.09563799 -0.18518625 -1.26231568 15.136330927024058 22.85000078332133 13.307507904552047 
C 0.29144398 -0.21956162 -1.13213004 30.976735985510377 -15.948823490951261 -54.764344125559255 
15
Properties=species:S:1:pos:R:3:forces:R:3 energy=-170037.182085416
H 2.71681055 -0.12021376 -0.91288399 5.820785223427535 8.405816999673341 10.637797833193215 
H 2.85631059 0.86591469 0.60688591 -2.3068879632093364 7.716085373769091 2.783228720144979 
H 2.83630634 -0.91298634 0.60612675 6.57043045770868 -16.56796437577549 15.50677549286077 
H 0.87594586 2.06419841 0.13661397 -3.533981511283601 -5.121792335149735 2.9328307175565698 
H -1.70477739 2.26967458 0.0715495 16.87790005106994 -13.560375941981322 6.050044749641063 
H -2.85484722 0.08402727 -0.33487008 -16.716186077488896 -0.7499642201426665 -2.937472021132763 
H -1.77020066 -2.02004602 -0.38543883 -11.453666429639943 -31.406701652957576 -7.115943713752673 
H 0.71645154 -2.21796432 -0.24662337 -6.458545870324676 16.404096951173912 16.02605008660777 
C 2.3980937 -0.02687119 0.16799621 2.309109006029523 -13.330172502214742 -40.57134688509654 
C 0.90502511 -0.08091051 0.11486122 11.802157890441892 40.58764599538136 5.4426340066093 
C 0.22255507 1.16093861 0.09159464 83.10831903770023 27.763082685173185 25.94013422016578 
C -1.1072041 1.31555522 0.12640383 -88.0641604606696 -47.449929543245666 -49.70873483465952 
C -1.77931155 0.065325 -0.21303763 2.2474012504091996 22.230993896275358 35.21895030266649 
C -1.12425622 -1.1944641 -0.21041148 -107.86539043107116 59.4982982717615 -13.913595271295861 
C 0.17694827 -1.2405308 -0.03885818 107.66271582690023 -54.41911960174056 -6.291354589329623 
15
Properties=species:S:1:pos:R:3:forces:R:3 energy=-170032.2549088588
H 2.90295801 -0.3265279 -0.80912202 9.592025809704683 14.741408643144478 -9.330891413759916 
H 3.02690931 0.89701868 0.7572606 -20.797949320478537 -54.404315811795435 -36.01094239234095 
H 2.67064702 -1.00939112 0.74994281 5.263010577762224 7.847047450149975 9.223140598544184 
H 0.74270168 0.50648325 -2.08536557 16.63008479712001 -4.577019031438789 14.653743264815194 
H -1.48013778 0.71653893 -2.17206343 -21.17503211253383 10.891755640164268 -38.920189500923755 
H -3.02472156 -0.07234388 -0.36094161 24.1518650916647 2.3089548492934715 17.86539964251 
H -1.72156946 -0.99142011 1.9152986 7.8290407575581265 30.379198388512183 -40.659545882896765 
H 0.6107292 -0.62153999 2.08449959 22.555356270422127 -14.481809885454991 46.22192291296556 
C 2.51109864 -0.06827557 0.18144605 -22.596365519674933 40.61252689258005 31.875992703771484 
C 0.95165962 0.11694214 0.09635519 35.31007472098855 -35.890856666599014 10.798412550664109 
C 0.26178158 0.27787555 -1.103375 44.25892305325546 42.38542422285471 -43.040215631622395 
C -1.0862024 0.43435721 -1.24149391 -34.69073461822851 -31.775196728993766 67.38315681180174 
C -1.91006388 0.02662694 -0.14891479 2.4462017772210674 -6.906354587059301 -13.195355321611526 
C -1.21071579 -0.41584867 1.01074911 -45.262304345971955 -24.27386117511263 47.19447641593491 
C 0.16963352 -0.29595024 1.1986204 -23.514196938809192 23.14309779975478 -64.05910357203082 
15
Properties=species:S:1:pos:R:3:forces:R:3 energy=-170036.55904860477
H 2.5086122 -0.99390072 -0.52404476 30.718709626528614 -52.75005631976487 -45.27120511874735 
H 2.79937812 0.73468164 -0.2480896 10.726171146687289 -11.310081288218543 5.943378960682922 
H 2.84878087 -0.50232734 1.15276768 -1.2331542794431771 4.233554266053162 -14.016280259000737 
H 1.1598067 1.57992613 -1.02345569 39.828089668793154 51.87396105818496 -30.759894377296312 
H -1.5149716 1.99368216 -1.1470804 10.829406355357762 10.233768443676139 -11.122874533778786 
H -2.90686682 0.22968792 -0.22279003 9.977384446843844 12.637682656556215 -7.360117311268648 
H -2.00373992 -1.74182218 0.7855158 -22.59473145827279 -26.265417977265717 10.965613318227533 
H 0.41897926 -2.04787834 0.95516947 3.5007441331698756 17.506220376615506 8.706122622248765 
C 2.40159098 -0.22523894 0.15644045 12.838833480682343 38.86712875237486 51.529784800171406 
C 0.94990487 -0.09117464 0.18554201 -44.07125620024964 45.89368408981762 -21.352557823949564 
C 0.42483271 1.03657382 -0.55312225 -40.11676831600716 -59.889806576848066 40.57138601719108 
C -0.94857863 1.16833093 -0.70936286 -19.551072719884694 -10.812558209928392 17.559662959541377 
C -1.79217456 0.1736615 -0.15234004 -51.621943254446066 18.956614700144385 -16.73878782663612 
C -1.36599711 -0.97099948 0.44575802 81.05926533046312 24.541438136803297 7.983824792943137 
C 0.05265286 -1.02828503 0.64997105 -20.289679146043515 -63.71613210820056 3.361943779671301 
15
Properties=species:S:1:pos:R:3:forces:R:3 energy=-170034.22908412165
H 2.86587633 -0.66096252 1.14471568 -13.968919752222611 14.05300632263341 -16.721516343093136 
H 2.80349858 -0.63673112 -0.5970575 22.817093063458547 -13.72688181841147 -22.998850970189405 
H 3.00303858 0.85631651 0.24259089 6.202759527299844 42.81725755845022 -1.33723497851984 
H 0.61520885 -2.2593665 0.13543637 7.295290846295901 -21.820838555231813 10.902872712475668 
H -2.03825096 -2.00620799 0.25640484 28.964806777777582 18.43845833564428 0.01117043425849273 
H -2.94012601 0.29581684 -0.18792109 -78.04708539757672 6.896777896287371 -0.22195368274573885 
H -1.50147295 2.31351657 -0.22411943 12.270347313503557 -13.405663055859103 -15.472053466796766 
H 0.90934044 2.05774344 -0.29507145 12.023115483508528 1.9913552125751737 2.792863516148191 
C 2.4723455 -0.05797445 0.24706578 -11.582259235569824 -73.53730479111935 27.458706138944958 
C 0.97626533 -0.10813342 0.08890048 -23.550594530011967 18.109882739319126 -9.556981240316018 
C 0.15954936 -1.2870455 0.13617409 -44.517799645927596 53.96879931602934 9.343967462440213 
C -1.30414239 -1.12279026 0.17388991 -6.152304027590226 11.284173469993537 -42.57867985045292 
C -1.93079524 0.15134549 -0.1779963 146.98130918229623 -16.418799946330076 31.80256429292707 
C -1.0174697 1.29609631 -0.2894361 -85.28860993180103 -23.4652094855552 7.6930650297924315 
C 0.33231149 1.13194812 -0.21839867 26.55284795491771 -5.1850120126044095 18.882060945126796 
15
Properties=species:S:1:pos:R:3:forces:R:3 energy=-170025.0590399181
H 2.95481701 -0.47750475 -0.63435681 22.455147277062448 -38.18880709658051 -35.967646880110394 
H 2.59477555 0.86642077 0.07135256 16.508443274165 63.01803925809708 -2.7069175783364035 
H 2.85610991 -0.33393348 1.14154333 -0.2424790592404576 -21.853271946675978 8.101065733994401 
H 1.01768993 1.87127743 -0.73893826 1.8467146904223444 -19.611185546197408 -10.364645140941672 
H -1.53299998 1.88543615 -1.2312697 27.78833000107526 5.54333392988225 -0.469841271779507 
H -3.01408272 0.38575933 -0.06025396 45.39998884186573 -9.496194867648862 -13.037577088083978 
H -2.05811118 -1.51264998 1.04650533 28.32928496101632 4.121880754815446 -6.999911124347841 
H 0.41154733 -2.07460351 0.98830704 -2.066673822167788 27.17072119704318 4.808341886273313 
C 2.37327116 -0.14596998 0.17658013 39.79094856779419 -6.434712053110085 42.83269101937106 
C 0.95142654 -0.18609643 0.07923904 -4.686854520054355 41.20954984324405 -22.57396536010562 
C 0.42669622 0.9311615 -0.57899997 -29.209121487998097 42.849262868496595 -6.350132181143924 
C -0.94916016 1.06757038 -0.73840233 -48.28490408839439 20.950602435442896 -11.841797516385936 
C -1.86394344 0.17106503 -0.15391991 -29.254336844503015 38.05890633003629 -5.427217147183113 
C -1.28674883 -0.84346552 0.53325557 -56.14605687989307 -57.76141906995471 41.90987796602026 
C 0.07742279 -1.04537324 0.63339072 -12.228432096971185 -89.57670603689022 18.087673496938304 
15
Properties=species:S:1:pos:R:3:forces:R:3 energy=-170038.3296288831
H 2.96510186 -0.62271717 -0.6343521 17.806336267823482 -28.634541386461088 -45.30534964996169 
H 2.71639198 1.10129762 -0.07880956 0.8710175758585871 -46.70680039561531 5.751686245224071 
H 2.978374 -0.33084348 1.06470934 -5.623263011703847 3.0754553439302654 -0.4066441249247181 
H 0.47432823 -0.40991951 2.11840559 31.412956858978124 -8.108446284188123 66.48263245084188 
H -1.7778569 -0.25796999 2.02030014 -39.55132140817068 -4.806987678638154 50.25167011574832 
H -2.97780262 0.17049634 -0.17417651 -29.96098539345733 1.0416441804254937 -9.663648215095204 
H -1.45304629 0.4066384 -2.31502477 4.389182606023316 -4.376315261847211 13.38502265472287 
H 0.9718435 0.38581069 -1.93913023 7.958209872516629 -7.53325785645424 -18.027174092964415 
C 2.48890142 -0.05625073 0.1018694 -20.29383782045376 76.57515300637937 56.4526473540152 
C 0.97339692 -0.11647003 0.1284959 -1.2653362768254734 13.132845950963734 -45.82280519422328 
C 0.10654737 -0.12316625 1.20051585 0.7486254281811126 -19.57736118666564 -12.316444920867106 
C -1.2711136 -0.09460283 1.1351797 -4.261487466625674 17.149226578909797 -104.09976826491256 
C -1.91638867 0.08765702 -0.15613352 68.77972553220671 -7.481825240202264 25.463339293769305 
C -1.0391286 0.18158847 -1.29749116 -44.22012773189657 5.621777177932522 17.13679324523673 
C 0.33072535 0.08418508 -1.11757322 13.210306153366416 10.629433051530858 0.7180442892116572 
15
Properties=species:S:1:pos:R:3:forces:R:3 energy=-170032.21606727235
H 3.12107818 0.14168994 -0.75204489 -21.93010484974503 -7.093872026613253 24.598176116417534 
H 2.63562565 0.85552399 0.90176279 8.13922308363026 -5.475967436227794 -13.831604046674316 
H 2.80761187 -0.85557415 0.78507083 12.942544203592485 -25.287055136989313 3.8567501419438064 
H 0.82885171 2.12524136 -0.05561654 -7.608312027953473 -30.81693829874056 9.577920468355982 
H -1.65718426 2.13358304 0.13252442 -2.6885160073360543 28.84898882198217 3.418264350277151 
H -2.90141625 0.02519425 0.08317108 -94.3863867151251 3.9670457291254335 2.384440659653649 
H -1.88644664 -1.98864541 -0.46854386 22.656474788524513 -9.510307323923845 5.573419395654248 
H 0.49573206 -2.21922277 0.0353661 29.314411724542236 -7.715967977485481 -2.408460650772548 
C 2.48188657 -0.01234193 0.20011716 -14.843107027738624 30.498526374605376 -4.6877379567340345 
C 0.94092339 -0.0650657 0.037172 99.17606970723095 16.049202056720596 4.703632702041979 
C 0.286082 1.1134517 0.03636903 -33.6538562525891 109.76658055455093 -14.093461793457479 
C -1.11445212 1.2145822 0.04980247 -8.248081455703469 -28.72850940365278 -0.3471206516721383 
C -1.90459748 0.05084341 -0.06341821 119.6427907497032 0.4555094386109143 -14.115057966357233 
C -1.18696225 -1.14467443 -0.27318221 -34.548723061335885 15.964026902589065 20.90691560226698 
C 0.20811631 -1.17497226 -0.04232992 -73.96442685969693 -90.9212634603725 -25.53607399930149 
15
Properties=species:S:1:pos:R:3:forces:R:3 energy=-170039.0274117727
H 2.8024142 -0.01158864 -0.77972328 38.81554316520788 24.534195141850976 -69.00357178534274 
H 2.87862919 0.41321644 0.93515932 3.5915246633884435 2.916067951242552 -0.05756805434682024 
H 2.76007652 -1.26869053 0.34514608 6.911089570498172 -26.356789046365463 9.758394130893434 
H 0.91686065 1.98105014 -0.53055043 24.158996619438646 21.044525391434824 -8.771434088029553 
H -1.47401406 2.14761743 -0.93190206 2.502523533647964 7.066869695562284 -11.519294509640156 
H -2.9134905 0.30286273 -0.17869158 -21.54983575653766 4.956773478311961 -0.15032534824998567 
H -1.91666705 -1.86082343 0.71626747 4.9058329777943035 18.51158317630078 0.6482610922643345 
H 0.47585365 -2.14354269 0.83133961 5.5390673457567665 9.978257211134105 -8.399758639946521 
C 2.47165812 -0.25391949 0.15707846 -67.17775244758164 6.4172413516312785 48.35581144369383 
C 0.92600279 -0.13405228 0.05130536 31.69111490186715 51.834615515860456 3.2943128479234645 
C 0.30429699 1.12480383 -0.36575662 82.71485768535 -58.244491732971625 4.6298283859258085 
C -0.99818504 1.20457617 -0.64834678 -71.03437570667347 20.276789271267525 30.267550965337488 
C -1.84339036 0.25217207 -0.08869183 20.133682015727885 -79.82011553980858 5.9816904670548325 
C -1.26717228 -0.9865607 0.43468988 -46.54221910674371 24.965587352017174 -22.649734581695924 
C 0.11058497 -1.17000324 0.42562169 -14.660047089498649 -28.081108031647197 17.615835302516412 
15
Properties=species:S:1:pos:R:3:forces:R:3 energy=-170039.49093860667
H 2.78905938 0.91262849 0.58430806 -7.9442800326828165 -21.893064543535026 -2.655630818073154 
H 2.59981424 -0.82105806 1.16516513 11.885816379454885 -0.6082265879117895 -10.3680543764505 
H 3.08009081 -0.37446618 -0.67387621 -18.937674766388902 -1.9383075080577985 39.45395957114377 
H 0.9635646 1.69602978 -1.12514619 4.814336211663619 13.846551320966068 4.408485401019043 
H -1.41834122 2.1120945 -0.95509422 -19.768566529674363 29.94765795071517 -21.929374383980356 
H -2.94289752 0.24337653 -0.24950839 6.295931858569302 -1.3677414107633628 9.475305444092854 
H -1.81617148 -1.79561072 0.97059299 -9.043628636875484 9.188551384437392 -5.3617479672031365 
H 0.64566373 -1.69695378 1.32288897 -15.168230698997277 -16.404796585591374 -12.727956841187908 
C 2.44724488 -0.14101749 0.29650718 3.260042619678195 20.319642472247715 -35.4696257569807 
C 0.94495736 -0.1459519 -0.01296727 -0.47461894477605343 44.80984365327172 0.10968370352160761 
C 0.29598686 1.00837056 -0.59709722 98.69600902967228 -32.99411166930998 -15.645942265062732 
C -1.02562132 1.16759597 -0.69221271 -50.8584725325832 -34.30180310227609 37.652896619371475 
C -1.84256586 0.16590092 -0.10817465 -12.920351562706319 -16.014172903005534 -15.624272571258091 
C -1.25052988 -0.98405785 0.47017045 -52.629040910322445 4.462857667645412 3.010924148398109 
C 0.10317872 -1.09390559 0.55661291 62.79272851596858 2.9471174895253935 25.67135009264972 
15
Properties=species:S:1:pos:R:3:forces:R:3 energy=-170031.41805638207
H 2.63400562 -0.45659475 1.32764186 -16.791874663248034 -4.057618740660855 7.2093164487789965 
H 2.86836906 -0.96239375 -0.21506784 21.90156450879669 -10.561082326407767 -31.32914302740803 
H 2.89609235 0.79856969 0.34181066 22.680029937793165 35.198804388906666 -23.994449719377396 
H 0.81384686 -2.19978912 0.24357194 -28.324300955157675 19.098566965984688 5.313160135641833 
H -1.98589827 -1.92535253 0.03258686 12.65892782642619 -10.573394706334085 6.87986808816358 
H -2.92414169 0.3680943 0.01799165 -12.652150859145163 -16.95135099251424 1.3949204291502686 
H -1.43089912 2.29826634 -0.26122578 -16.309020191303695 17.887563823691046 -7.614499642174367 
H 1.06760797 1.94619022 -0.19453747 -12.695159402682451 11.089741507917157 -16.02612953661789 
C 2.4035235 -0.13813381 0.28329208 -29.491890003116108 -18.833808700921665 39.239950889409904 
C 0.90791568 -0.06858963 -0.00096138 63.8486570967208 -31.149108118657804 23.163044495578784 
C 0.20452264 -1.23213851 0.19194626 -60.29997377610208 -27.174023708657813 -32.232152869281464 
C -1.25806482 -1.09364123 0.03493905 35.869982658716616 -56.72064053889321 21.835635230250652 
C -1.86234596 0.12152412 -0.00802861 18.826723420168534 89.58689342550112 -36.62095245510675 
C -1.05427808 1.29288933 -0.30884979 4.15482997841486 -39.53008691069013 30.32071962360161 
C 0.32817203 1.12935192 -0.30076779 -3.376344390460593 42.68954700337898 12.460714281032365 
15
Properties=species:S:1:pos:R:3:forces:R:3 energy=-170040.786124841
H 2.58288847 -1.17819077 0.80859245 10.226831390553826 -24.300293126240206 29.646066898125284 
H 2.82742229 -0.6693851 -0.82375931 5.331922196240334 6.4375971557163405 -5.8845254763216435 
H 2.91997338 0.58000836 0.52410338 15.078120157670009 -6.651220445610071 -0.6760733390900976 
H 0.54777536 -0.83365287 2.11125805 11.42030454031633 -11.473952270283258 10.293543310990586 
H -2.09730982 -0.54649646 1.77191231 -19.80362888637873 -14.066346809407088 40.056215550086186 
H -2.88511981 0.16234931 -0.33627235 -0.5132861974619272 -0.906609994570759 6.500117198753549 
H -1.53498103 1.09020063 -2.14034998 8.330513805754332 -9.6131879721014 5.8137710919371965 
H 1.02722247 0.94952699 -1.82206131 2.13696573634408 -2.993656222318261 -4.167962946505391 
C 2.44499333 -0.35249832 0.15805953 -25.741019450776577 41.0263428631943 -21.72997620336103 
C 0.95874149 -0.02741384 0.08577283 -27.209075392972764 -46.05223073538332 23.432991913541503 
C 0.12733509 -0.52697444 1.16276282 -55.2961635201577 52.803866507215176 -23.37710535343869 
C -1.33731408 -0.28372907 1.09616309 93.14223157383307 -11.45960502144106 -68.77381184264758 
C -1.79042428 0.10755549 -0.17120221 -39.87732258700378 24.69839933962977 -17.8805544354849 
C -1.03726572 0.60290529 -1.27175159 12.373817314741245 -13.077919905908626 40.871944219649414 
C 0.34962854 0.51765308 -1.06758512 10.399789319298247 15.62881545168742 -14.124642957876489 
15
Properties=species:S:1:pos:R:3:forces:R:3 energy=-170035.9962222256
H 3.03638525 -0.08225022 0.97099258 -9.560616967644737 -0.9456673823809474 14.287940002554674 
H 2.85543437 -1.02196884 -0.46252633 -1.5423381441941157 -15.686247136613888 -4.108158433664779 
H 2.949418 0.70439476 -0.56046853 -23.47027768470815 -13.695839395054909 11.083125812298459 
H 0.68410695 -2.20239915 -0.27445101 -20.95693471983147 24.205988335871293 -7.231843491200291 
H -2.07279523 -1.88033746 -0.20602045 26.720224223996023 -14.02791079182529 -5.35874665413432 
H -2.95806403 0.16499852 -0.13915267 -37.61854694111609 11.190137861002192 -7.059969402892415 
H -1.42555555 2.30342274 0.15609935 -14.046830566622983 15.24370702278908 9.836091497505425 
H 0.8687077 1.86650734 0.84423524 19.90412129096853 34.79872022601146 3.9851081553064693 
C 2.44229393 -0.14304576 0.04078126 78.16279188619374 15.745905793465774 -21.5009407973253 
C 1.00596328 -0.11993769 0.08675984 -73.45591359194735 35.41521317243874 -6.619804488623846 
C 0.15017964 -1.17875626 -0.245523 6.758147115198452 -62.96316538916803 20.817036296043792 
C -1.27641748 -1.10153726 -0.19437484 -7.054591704446314 20.01985979675382 -18.85215335251178 
C -1.90236102 0.16162685 -0.21363373 71.58459311480911 13.105416724336006 37.985379496045 
C -1.06895972 1.28482463 0.15466696 6.798654762148571 -33.28656359909411 -22.649735767516972 
C 0.31885927 1.10931482 0.34379771 -22.22248207280323 -29.11955642435224 -4.613328871884124 
15
Properties=species:S:1:pos:R:3:forces:R:3 energy=-170032.73927231366
H 3.02325706 0.81147008 0.5044827 -16.178743519487718 8.897466706319934 8.099292931529812 
H 2.72022937 -0.92106925 0.89320897 10.744528842308915 3.6890691168565275 -5.737986454673289 
H 2.82969338 -0.2820434 -0.85667754 -0.6795715111774175 -3.962830135304951 25.484631896481144 
H 0.74091574 -0.33870928 2.18330158 -31.914751264677946 5.432358867240952 -33.722075351576024 
H -1.80547518 0.12272203 1.98053776 -18.085784484011153 0.9667311216307994 38.47201673712784 
H -2.85035652 0.42914951 -0.04491119 -63.57130896960656 9.267398997464538 -7.413497045679057 
H -1.42655461 0.27083493 -2.37805922 -14.94343460320296 -1.4376420039942939 10.504962159558783 
H 0.85295051 -0.11779287 -2.06815917 12.409103791623409 7.527854069945115 -13.515620684042466 
C 2.44531388 -0.08553705 0.20661032 7.925866603472001 -35.53723652977074 -36.94964663353656 
C 0.94148528 -0.12902007 0.11488146 33.51619428729521 30.832516429829074 -127.11776194425642 
C 0.15314357 -0.20489687 1.15882166 18.445946795553237 -1.2691498773111756 150.71325521655388 
C -1.18148972 0.07473596 1.13377392 -41.43365104790509 -15.970909407943239 -69.47189520618268 
C -1.85386046 0.16403136 -0.13025667 61.231024728263264 11.185223818585293 22.789780047293377 
C -1.10038305 0.16191839 -1.32507023 -10.961327760965306 -3.9321873336410755 8.03594874286525 
C 0.25301026 0.02100306 -1.17663675 53.49590692669707 -15.68866265408571 29.828594402715353 
15
Properties=species:S:1:pos:R:3:forces:R:3 energy=-170044.4701297291
H 2.86356571 0.78560847 0.62508182 19.38484669722153 20.459734184865983 7.397311774214708 
H 2.66166695 -0.97710757 0.79679386 -7.570293419380062 13.404793849031984 -1.6441989862716389 
H 2.98489908 -0.36866851 -0.77851196 3.787945247359887 9.742136524345245 -7.71017168420995 
H 0.86062452 -1.800678 -1.21736492 -11.915548470555011 18.420997120733844 12.527244770849004 
H -1.70514023 -1.82084654 -1.04512635 -0.6296887630332821 -19.906816662207337 -15.436566586157738 
H -2.90437166 -0.31416757 0.17826363 -32.24980974466459 -0.5346357195839976 6.163795819352334 
H -1.82625676 1.88029293 1.11604986 11.944706624268608 -19.84201509947657 -8.56703055677274 
H 0.71167693 1.86672571 1.05792086 4.331442607624746 17.212377478743768 1.126648576326321 
C 2.44973881 -0.07907371 0.14059229 8.711125601244158 -25.573748719771405 5.6082244291915115 
C 0.99825246 0.10079999 -0.06906603 -36.16921511324491 -35.546496606323245 -7.191073777798886 
C 0.29874317 -0.96634077 -0.68275093 -19.85157518875385 -11.450189602331461 -24.801658264721176 
C -1.13196414 -0.99641668 -0.65506467 55.162900950946515 -34.23721142987056 0.757702888292446 
C -1.85532033 -0.14312739 0.11595491 -0.7602867923528767 65.27753351153899 7.753566805408416 
C -1.25827624 1.04237081 0.60751426 39.18895939858725 -6.0120581582359085 -0.8876273712576007 
C 0.19280266 1.10473062 0.48135717 -33.36550963526811 8.5856005143617 24.903833349376036 
15
Properties=species:S:1:pos:R:3:forces:R:3 energy=-170027.52732142818
H 2.59864509 -1.20214098 -0.45094313 20.606484282660624 35.773433109106584 29.687506600417983 
H 3.07045167 0.60373847 0.1157829 3.8167654420752166 -6.697684471677005 -4.5129633501463 
H 2.50118376 -0.62025719 1.29884676 6.563990263604872 -7.179411227806074 21.405063608248664 
H 0.48419881 1.4105722 1.71381135 42.50115679953477 -10.55862056191513 -11.122319569529001 
H -1.73024823 1.52579042 1.59761321 35.441239572768396 -36.41853991738709 -17.531904074662712 
H -2.91986235 -0.10685703 0.17847642 -8.924773793379865 11.381180746527534 -15.329848621073548 
H -1.7051387 -1.19493619 -1.70018146 -11.826578689074523 -13.520058026398651 -16.26998651991444 
H 0.7502853 -1.48647516 -1.50255541 10.649241006292414 -20.70095983126024 -32.70350962035846 
C 2.4249755 -0.28462036 0.27715481 -9.116052657293471 -38.35313106228501 -63.959456657847205 
C 0.98461064 -0.02942681 -0.04247327 -2.6678850927681927 15.920734947821652 26.605631221341703 
C 0.24501266 0.753374 0.84388779 5.553153713968724 42.27761767404979 48.3480609173336 
C -1.10863838 0.78261451 0.90300763 -87.97069285995956 50.444022147709056 4.374416762351686 
C -1.87872286 0.14469091 -0.06712465 4.92842761201525 -25.70855641380625 14.3663132871632 
C -1.1601626 -0.58101431 -1.00583024 -2.943684537595634 -13.559480647091178 -13.611129082773623 
C 0.23701428 -0.69567591 -1.01353423 -6.610792248670072 16.89945234859097 30.254123913627414 
15
Properties=species:S:1:pos:R:3:forces:R:3 energy=-170031.71711017855
H 3.04626923 0.69098131 -0.34779541 -23.860504117243398 -29.04659048371598 9.53290907307107 
H 2.8909748 -0.19617263 1.21215866 -8.54357145900886 -12.164761807518822 -38.64958276645915 
H 2.8463265 -1.09500496 -0.45094401 2.862568448906442 -22.312530951436077 -5.779996536889384 
H 0.69896258 -1.91683091 -0.89175172 21.680842894118314 -34.47119289549145 -24.185896969879614 
H -1.64264917 -1.69578327 -1.43249057 0.5746654806523563 27.3664789070496 17.00250256917818 
H -2.94687858 0.32693189 -0.29222329 -5.310552515160472 -4.416411428894176 -5.092772922498586 
H -1.88741892 1.70091326 1.27667621 28.336258774591077 1.1945522469148635 -22.264914307311898 
H 0.74398633 1.46534098 1.52560261 16.407394719504364 30.785444077565263 27.091302018271595 
C 2.48884519 -0.24358153 0.10262952 17.405969879519194 76.96500827692702 58.56256095482436 
C 0.9741258 -0.05670367 0.1348097 8.452519375770631 -44.22070878420938 -34.84361066754962 
C 0.23479746 -1.01142656 -0.62909252 -53.6157507449455 47.53124959315486 14.77647218566989 
C -1.16410956 -0.8480125 -0.83076645 18.612031705511864 -27.82868349128933 -3.621484432129507 
C -1.85924678 0.22851227 -0.19265416 -37.71061645881225 -63.462609497553586 -72.09696860170729 
C -1.2215925 1.12255174 0.54338488 77.98549978152418 22.2671128195322 101.19230581700481 
C 0.23252071 0.86915125 0.82146078 -63.27675457910691 31.81364460478603 -21.622827785236943 
15
Properties=species:S:1:pos:R:3:forces:R:3 energy=-170036.026063839
H 2.78079507 -1.24863002 0.13373131 -4.122330180992088 15.673427225279646 -5.31473846345479 
H 2.95378362 0.33031017 -0.80225321 -14.656392389033185 -5.975488622981381 0.10471629915761332 
H 2.84928359 0.34338123 0.9489872 8.2115771406065 -4.70325086766499 -3.935087851920935 
H 0.44608846 -2.05984907 0.80065375 23.386863474830747 -45.75764907099959 8.329086077214285 
H -1.78705394 -2.06780545 -0.04332989 -5.786539897424244 6.230398644252812 10.589041615043302 
H -2.8197816 0.27881543 -0.54439165 -31.633284781069044 -14.81521295926065 -6.755575069348487 
H -1.57085284 2.26044218 -0.62755679 19.454915677041072 -39.530016947248384 18.168290354966903 
H 0.82423875 2.05312529 -0.41626094 30.06696814949266 28.90703239056866 -2.4092160187791998 
C 2.42713537 -0.17674973 0.04761477 63.33215495258063 -12.583700525054162 33.9149965776391 
C 1.0016667 -0.05183633 0.18409625 -102.91543542377686 3.6912296828033404 -20.13187838191608 
C 0.07296637 -1.17120225 0.38974706 57.14999906596457 52.70775689721342 -6.561701628985032 
C -1.24982524 -1.10726613 0.07505137 -17.387050104721503 -30.481311810472622 -4.997357017809057 
C -1.80254331 0.09756188 -0.27009445 -38.88026527792854 13.83940674916061 -4.160112811177236 
C -1.08547563 1.24861933 -0.27380098 36.614768398349 59.52807779570349 -14.775801010957542 
C 0.32754823 1.17022207 -0.10636321 -22.83594880391972 -26.73070213876333 -2.0646626696728405 
15
Properties=species:S:1:pos:R:3:forces:R:3 energy=-170030.75018727762
H 3.12132241 0.37086193 -0.7098349 -15.6238575338918 -15.518912371272203 25.438113322646068 
H 2.77516266 0.66277158 1.0764107 -4.566169954683911 1.926947342431858 -9.131661619729197 
H 2.88291109 -0.9629614 0.5682934 11.811525876709629 -33.38090870737861 0.16979890147641538 
H 0.51042774 -0.64182767 2.13259905 18.261633444467062 -4.679693346754245 -2.9526813618758023 
H -1.94239823 -0.68495772 2.00653307 35.511645325765166 17.603872739798824 -31.583531287418978 
H -3.12007543 -0.02183951 -0.20075949 71.21713681800972 11.737338540395424 0.4769988876164775 
H -1.57614397 0.98968258 -2.02594522 7.921195654369645 -22.362066254013573 1.53170132940657 
H 0.85291606 0.52678853 -2.02574163 32.48184527794809 20.370338693629783 -52.72743915494404 
C 2.54296882 -0.01440113 0.21411316 -42.577855704825566 44.304246319475624 -30.512393365923717 
C 0.95490532 -0.03056502 -0.02861458 28.720034340633095 -27.226735825819016 77.45266650993095 
C 0.11138644 -0.42348132 1.13249188 61.1590572489482 23.53854658817903 -8.403293572486284 
C -1.23332928 -0.32903348 1.13003366 -101.61384859755839 -17.953899838856053 -33.86100140210553 
C -1.88890219 0.04074094 -0.14218727 -49.53056759405761 -17.960866537504533 54.224518067254515 
C -1.07916678 0.4055122 -1.19831387 -54.30509342154648 29.42591092008611 -28.315465402539836 
C 0.29807623 0.33131132 -1.17640856 1.13331881971316 -9.824120634040513 38.19367133451346 
15
Properties=species:S:1:pos:R:3:forces:R:3 energy=-170039.60813927528
H 2.84236001 0.66141767 -0.39095349 10.21823537378739 -18.898662439778487 18.653139377911533 
H 2.68321811 -0.23755028 1.24991921 5.154889786379969 11.841578139492325 -5.4496955709415 
H 3.08237111 -1.14598077 -0.17056654 -21.084931057774938 -4.016859699648869 -13.266923179233904 
H 0.94890124 1.77247473 1.06292386 -11.766870227738682 -9.913803093969975 0.6382219312842496 
H -1.58829307 2.05240054 0.90507366 -1.2999871536266856 29.056391294665705 5.680107715212273 
H -2.97315313 0.2601885 -0.2336893 -2.8140090770502546 8.92150804221767 7.896722679610964 
H -1.71564096 -1.80549723 -0.99499169 -35.077761705580166 -26.497109622445716 -9.097283481768692 
H 0.62918881 -2.0425389 -0.93146324 -5.201557773666909 16.042027839388975 -5.292992877103172 
C 2.47371742 -0.27412151 0.15287994 -11.065918363091983 43.63788011147257 5.406389386321526 
C 0.94149348 -0.09551877 0.0112166 20.085198536418673 -39.294812900128505 -7.07820021566206 
C 0.27954244 0.98995421 0.60920031 56.105493499353756 34.52925187975154 -5.4954326887069 
C -1.05025999 1.26147561 0.42011911 -51.628336015708015 -50.3867742650448 2.161784970848353 
C -1.88649416 0.21590944 -0.08635428 30.29489481284987 -26.59513196179556 -14.21733265998 
C -1.2469931 -0.99174979 -0.50940152 24.379024528804788 48.24316318755586 -15.652818841311666 
C 0.16095909 -1.06514071 -0.63924631 -6.298362791714728 -16.668646511732742 35.114313453518996 
15
Properties=species:S:1:pos:R:3:forces:R:3 energy=-170043.2902942548
H 2.79437221 0.67019442 0.75357833 5.825251025488838 -9.176571034404107 -7.066830563467748 
H 2.8211173 -1.08123944 0.70325353 8.722485766870097 -31.385672302518074 14.539453832348789 
H 2.93004404 -0.15885109 -0.81269185 17.614790594174398 -1.8472957427351533 -25.933579001420455 