15
Properties=species:S:1:pos:R:3:forces:R:3 energy=-170039.97932529647
H 2.96043495 -0.26706325 1.092789 -6.803736005333033 2.2251516901127983 -9.824622236343203 
H 2.69759974 -1.1528124 -0.43661406 17.834826804287868 2.2577072211247584 -7.19142952411285 
H 2.81137242 0.65433293 -0.40981667 16.109983686103565 30.12721971686782 -23.305548168205732 
H 0.93919535 1.46316165 1.4098717 17.554646936514477 32.38232168915331 26.82274438257543 
H -1.36320777 2.01275047 0.98132249 -19.82933748666791 29.532486586644715 18.39024522353369 
H -2.96441731 0.55547583 -0.31959424 -2.728576599751623 -1.0779125171341986 -0.6141070744816267 
H -1.83390912 -1.50872646 -1.52567775 22.54732826193699 32.4138716439178 39.20572216490127 
H 0.52531775 -1.74247097 -1.38813819 2.832639511512588 1.3300216290936817 6.426182442322258 
C 2.45615935 -0.21156183 0.08508407 5.862162077204774 -60.836978766137086 33.76450402862155 
C 0.98861519 -0.22456574 0.17177191 -55.41081818550645 13.508270965195953 -32.39934177863443 
C 0.34119432 0.8228951 0.8281386 -47.44991175592997 -29.323638598105436 -28.72739591769007 
C -1.04514623 1.07788521 0.59488516 25.15681759726787 5.046427478536306 12.231894694427108 
C -1.91102333 0.30127899 -0.16958906 30.253759866566124 -10.902378225099255 8.902953500302315 
C -1.25406563 -0.79823857 -0.7478639 -57.81597395302226 -32.99735370405124 -64.47182265817702 
C 0.10769215 -0.96882241 -0.71236286 51.886189244816975 -13.685215624298873 20.790022106782356 
15
Properties=species:S:1:pos:R:3:forces:R:3 energy=-170038.31141106947
H 2.98327204 0.76377122 0.07176843 8.807389367981969 -0.5883913592661624 -7.501936765151736 
H 2.73716875 -0.40880553 1.41695942 -12.602951143923837 8.380963376358718 -12.453923083898779 
H 2.80708531 -1.03435442 -0.17848439 32.51314028118757 -32.623656431083845 -33.01513034736007 
H 0.78238321 0.62429932 2.02649559 -20.867530927847945 -10.993036615750029 -7.618269367281346 
H -1.77549219 0.76210235 1.89350027 -31.127291383043396 18.109600513910046 47.83899624279738 
H -2.95746401 0.08041467 -0.26097442 -35.56267594868236 5.487200719001755 -2.1652368959148576 
H -1.73117848 -0.2289879 -2.25704808 36.32250027082708 -13.236772493304345 25.203770181605986 
H 0.87833763 -0.37890449 -2.03332198 25.18605401517054 -12.11687479619603 -47.13061995257824 
C 2.48373384 -0.18021695 0.3385908 -29.08358454290517 15.745132638143426 20.166975127430796 
C 0.98770374 -0.09966349 0.05549202 -24.655301859513994 2.5056149691163174 -1.5607254853419064 
C 0.19170593 0.27271764 1.12466441 -32.83361671976479 31.30731443358316 34.35376222307274 
C -1.25182986 0.43905909 1.06002179 55.85658017511473 -38.78052705552433 -73.67040964613135 
C -1.9019073 0.10306627 -0.17269781 58.56887189443408 -0.11686977906369528 39.57348796099382 
C -1.09480948 -0.25352454 -1.27703885 -62.42090365443368 23.500060766113275 -26.569489767484978 
C 0.2728801 -0.29640464 -1.18594588 31.8993201753992 3.420239928140702 44.54874957524253 
15
Properties=species:S:1:pos:R:3:forces:R:3 energy=-170043.47743703777
H 2.97865034 -1.19418387 0.22221635 2.3912093261873513 -24.72346166744859 -15.391595508788408 
H 3.03500894 0.57753057 -0.24261665 3.826270983584354 -7.81524610132362 -9.718633551202641 
H 2.52061467 0.04651024 1.29653293 17.539705591327955 3.717807489919646 26.81704414080467 
H 0.59498621 0.53076199 2.07477031 21.881021344986273 6.332487163971273 47.40598301526055 
H -1.83802542 0.47995025 1.98264189 -14.362077534384927 2.2621267761652466 19.50133464190824 
H -3.02735207 -0.03575997 -0.25430381 29.05958589656511 9.577351274253639 3.937416804456357 
H -1.51492986 -0.17349218 -2.27685622 -10.35239560953082 -4.16155476956984 -20.05552810801297 
H 0.93092674 -0.56987077 -2.01074217 7.130503224562202 4.436576315790745 -21.33523890756471 
C 2.4787351 -0.24092976 0.25661538 -31.518400066437273 46.01236817508253 13.362209829429359 
C 0.9719885 -0.07440537 0.06187942 -22.246647919910856 -3.577984958678946 -3.797523123952864 
C 0.13223584 0.25059927 1.18010182 -1.9713255092779125 -12.937142788725453 -58.979186135497876 
C -1.2735365 0.27303659 1.09444671 16.400429206676936 0.045708658060282466 -19.4589107081469 
C -1.89524297 0.0794511 -0.13723793 1.0789121642764397 -8.078083336291234 -42.466976693689034 
C -1.04327043 -0.07108379 -1.3170469 -44.61878060878858 0.2901360212802203 44.70491153468364 
C 0.32027944 -0.18815655 -1.20513382 25.761990695984796 -11.381087066664856 35.47469158449155 
15
Properties=species:S:1:pos:R:3:forces:R:3 energy=-170029.44442755828
H 2.96977338 -0.89215256 0.90040344 -10.547285298531168 -22.78491462353939 10.416178551982602 
H 2.69488472 -0.78569837 -0.88820638 10.286048921976397 0.38360955109550143 6.730537643771649 
H 3.17592316 0.59120702 0.20269355 -23.676405399766644 2.7553524389827024 -12.273482624350631 
H 0.54104814 -1.31547272 1.68504472 -9.947301352713941 -9.178993666802207 26.20369124850865 
H -1.94980596 -1.08813365 1.64213453 9.450793337239636 19.709332396757137 -18.523457988260926 
H -3.09198357 0.22740561 -0.26011367 49.301938924640844 -7.166542697808924 -6.504594859025318 
H -1.14514217 1.22322356 -1.99919627 -28.404462457904394 23.769264674279814 -14.721172606985117 
H 1.03215758 1.4970137 -1.36633341 -2.547844428226025 -25.506327678348807 -4.8548272571190845 
C 2.50237261 -0.31331827 0.10226461 -21.180074223623755 11.406265604946235 -8.15715032621199 
C 0.92447269 -0.12054535 0.09340886 76.4270700457284 3.603346113401492 36.897429003751775 
C 0.02122113 -0.63868515 1.01878196 55.171217113945964 -24.35236964332046 -10.52584209654642 
C -1.32762313 -0.50366496 0.87649578 -53.36963595837632 -47.30367630446952 49.38744610866541 
C -1.9219361 0.11109171 -0.20625577 -16.90750644513913 45.12493765011866 -20.83307096823523 
C -0.97378099 0.8113154 -1.02337472 -8.786912610150157 -27.235252392575337 -3.533417060465444 
C 0.42056047 0.69944233 -0.85424777 -25.26964135492074 56.77596739146205 -29.708265583658875 
15
Properties=species:S:1:pos:R:3:forces:R:3 energy=-170036.17399332215
H 2.8118667 -1.20200138 0.75748259 -1.136355707413372 -19.202454376230765 -22.460580709097737 
H 2.98038153 -0.09818833 -0.72234159 34.49230999668839 -0.9668354738828958 -45.3871108253002 
H 2.92421006 0.33988255 0.93109389 5.10436550904965 55.15815410929718 28.8766931590927 
H 0.95333808 1.37054629 -1.49737431 30.13826089663224 20.16192590141459 -18.39264058204772 
H -1.3103495 1.72683414 -1.70856279 -12.761170502880702 10.062282118850483 -6.698119668001089 
H -2.99050296 0.39393198 0.0025233 1.716269632017755 2.75941150442504 -17.561931435203427 
H -1.98494281 -1.17572193 1.51716693 5.968020322030214 15.415467272276489 -8.696166468741941 
H 0.54569498 -1.56796931 1.58682611 1.0649182901061134 -20.40545559810229 20.12821656652434 
C 2.52252723 -0.29335775 0.19495814 -80.34565601196556 -39.56129297735111 15.956909604667677 
C 0.94599273 -0.21524991 -0.0164181 27.018719097833372 11.427776398730636 43.91707811941943 
C 0.36895899 0.79352816 -0.82979965 -17.694152853535748 -27.556212646139553 2.259278434011436 
C -1.00731462 1.00481742 -0.96153319 -11.37995579338645 -34.56208607870944 22.694948752379798 
C -1.90959738 0.21703905 -0.15291505 15.36460622176895 43.51373650610934 1.7486271309149408 
C -1.33586773 -0.56599182 0.82335448 37.784082815930155 -74.68491986936971 27.509722532009594 
C 0.08552511 -0.92283652 0.86966963 -35.33426072705397 58.44050320868201 -43.8949246106278 
15
Properties=species:S:1:pos:R:3:forces:R:3 energy=-170042.08023854048
H 2.99726201 0.54603144 0.81029026 2.524381772999004 12.467039450494658 7.68317291062212 
H 2.72702403 -1.17499827 0.76406863 -1.3059909655853637 4.850621149866976 -14.777974620935867 
H 3.0793193 -0.18573594 -0.75774998 7.090219697789882 -8.023178636014961 -20.777161877532535 
H 0.54705997 0.4289647 2.23175523 13.708709110873105 2.6774143506982613 -18.19891536931508 
H -1.83050035 0.52062189 2.04200302 23.641441466209145 2.5308267103869984 -30.70843330133922 
H -3.02661518 0.06333492 -0.1926974 12.772133418456049 2.021931608260443 9.678359510998693 
H -1.6537393 -0.57938574 -2.20787442 1.5242093120344729 2.2040120583159672 4.044446640475788 
H 0.74569997 -0.40507488 -2.0096928 55.30094593643844 -21.650770472377825 -82.15927562279975 
C 2.55078751 -0.22793364 0.1820881 -53.306556207805144 2.8976806100947607 21.128689040213644 
C 0.98290951 0.0265828 0.05672167 18.546181876975943 -20.365626240790796 -38.365928443019364 
C 0.22125582 0.34144715 1.16249824 -39.82095932684026 -0.9322486314181976 38.071049137552954 
C -1.20029185 0.38860086 1.07555337 -33.06225606157098 -6.018718915054374 17.638705047220157 
C -1.9105974 0.0794455 -0.10971183 1.4458502572785066 -7.279304792767372 -2.6822631729576005 
C -1.16563506 -0.3029236 -1.25436221 -2.924595190388286 19.31419785091023 16.378103753833553 
C 0.22067993 -0.23913752 -1.16980222 -6.133716282685569 15.306123899395242 93.04742636698252 
15
Properties=species:S:1:pos:R:3:forces:R:3 energy=-170028.4950015216
H 2.98427348 -0.07264457 -0.73782487 12.25716809839221 3.250818117757089 -5.042543914608858 
H 2.70710463 0.92112232 0.78667413 13.336185800741791 -6.996778185142857 0.43351008655533496 
H 2.62161897 -0.92248013 0.78609309 13.991908079031013 -16.625302380839276 16.87738421891469 
H 0.88387047 -0.2476664 2.05391615 1.782945977823119 -3.5538950041183 27.458684794166118 
H -1.75723849 -0.10813708 2.08885242 -2.033020220866723 -5.740997254310477 -0.995155252116582 
H -2.85817204 0.26699287 -0.12620098 -41.59511837070845 1.80449116041787 10.225328955287848 
H -1.87501346 0.3283043 -2.17143896 36.439847935772534 -21.132761149687497 27.697663309677164 
H 0.61650992 -0.12459274 -2.3134334 29.85413817387907 11.803755191391593 0.734140624097515 
C 2.48412276 -0.01328564 0.23210954 -61.185215275414016 29.89040058148254 -33.407139068928274 
C 0.89626666 0.07213698 -0.00950088 80.94392170308633 -31.584734895781228 -24.439012843907616 
C 0.24820021 -0.15607672 1.19744134 -74.92609096799582 17.29767358662205 -36.22181694904878 
C -1.19053055 -0.12976531 1.1428846 49.00095382660576 6.485264790145522 57.515919724508706 
C -1.81976852 0.08688322 -0.04890062 -15.709855647829635 -7.991495869293264 -3.3571637350326613 
C -1.18667413 0.05227244 -1.25240994 42.518613271161016 39.641277792761905 -60.01512177340529 
C 0.28952584 0.08450283 -1.29233289 -84.67638238367819 -16.547715295584617 22.535320638019634 
15
Properties=species:S:1:pos:R:3:forces:R:3 energy=-170035.12679400956
H 3.03776141 0.34844317 -0.78994528 -20.456730500155075 -21.233727882695923 44.65416906628075 
H 3.12660962 -0.07434567 1.09201549 -7.145269068233832 13.310387078053067 -2.547462593849036 
H 2.71224251 -1.32786216 -0.04466844 3.2434328242791812 7.704622041712099 -4.542620734520494 
H 0.98977072 -0.7037061 -1.83350764 20.444523658301893 -24.59061532142474 -43.22810660480601 
H -1.47459656 -0.78796817 -2.18044149 -7.900723639822022 2.8776046597766842 12.618174714519439 
H -3.06389076 0.10627373 -0.20882164 21.96633642600129 6.363290051476433 -5.91953565689996 
H -1.79983917 1.14139684 1.80171582 -12.78030135382468 7.950346693156963 12.348649448849288 
H 0.61627927 0.88234304 1.98733862 19.47184801576475 21.267066055598605 43.59873497290494 
C 2.56613817 -0.23333651 0.14555645 -36.7001060099639 -0.023536176131906977 -27.86270588293587 
C 0.93250947 -0.08818869 0.17609522 37.24664025792897 -10.568371568380904 -57.95068085226814 
C 0.29695639 -0.56530722 -1.06089529 -7.110149792119233 47.250335702153656 90.74388479076654 
C -1.087131 -0.4585162 -1.18546507 -23.9197785680762 10.35846701328915 -8.697163744242088 
C -1.93610554 0.15991697 -0.1820679 35.79006780674757 -13.437562827832323 23.642151773016025 
C -1.25372242 0.67184022 1.00004969 -20.66284398536101 -25.85109684688564 -54.58893036142744 
C 0.13356655 0.548554 1.12158271 -1.4869448856466667 -21.377208671865223 -22.268558335387944 
15
Properties=species:S:1:pos:R:3:forces:R:3 energy=-170040.0320277389
H 2.85566035 -0.9560728 0.72752481 -1.599822005246631 0.7082837961775114 0.5380757864400366 
H 2.73553003 -0.11276472 -0.88191682 21.060296811353926 -14.113221129556127 -38.26976902853365 
H 2.78751553 0.8524054 0.46427041 22.522599149832256 15.248816725678664 20.416260799478447 
H 0.82796095 -0.2221022 -2.11447952 23.71952896794545 -6.044556769837634 -3.1513822797197593 
H -1.4388889 0.15858725 -2.34351939 -5.043805628202387 -12.391738628217741 16.142342370821797 
H -2.90349271 0.1706648 -0.32278149 -36.98028469191625 1.5401396319738139 8.853842721659484 
H -1.93732264 0.10829815 1.95717552 -1.2179639118368828 -1.090982636709263 24.355954380344176 
H 0.66321769 0.33593342 2.19009988 -2.559852052143382 -1.3396374519601486 6.720350255160747 
C 2.44715023 -0.11868117 0.13476606 -33.91363169761452 24.106692424717455 22.322328204922666 
C 0.93326238 0.05587258 0.10492085 27.4863701581399 -47.657926112273515 -40.1716006811996 
C 0.33411961 -0.17973418 -1.14927072 -41.98732156692829 27.115458378810846 2.225886899161659 
C -1.0745089 -0.04099005 -1.29979948 20.6707332527837 11.019072502648061 -3.860317091651826 
C -1.86242832 0.05687007 -0.15300237 47.649103603687195 -14.137828102093067 15.630278754858862 
C -1.22277245 0.01418647 1.15448616 -44.10674070924658 26.2660239318205 -55.0990610890845 
C 0.14389401 0.18446728 1.23511774 4.3007903193924975 -9.228597747000403 23.346809997341456 
15
Properties=species:S:1:pos:R:3:forces:R:3 energy=-170043.19567807385
H 3.10117837 0.62980468 0.1758387 -29.864593558046494 -45.11889589188649 -6.079035702587095 
H 2.75400703 -1.10219287 0.7698437 10.44651541181647 -11.94614621101912 8.116696041208966 
H 2.64344123 -0.74577875 -0.9764524 8.952907397709243 -8.370627760116994 -14.58152439143826 
H 0.41462929 -2.28648209 0.27217401 -10.153669789444884 40.41537465702289 -6.773447764162075 
H -1.93403299 -1.92791744 -0.25728111 -2.5110306138359073 3.168307503517155 1.3941875917435012 
H -2.98377495 0.42911807 -0.47778542 26.562609633772905 0.9515787002979949 12.819294707298356 
H -1.37863354 2.33750873 0.1234433 -4.936996354897614 17.029214374072748 -3.053681297873531 
H 1.13013705 1.97456925 0.04766229 -0.7713350870435748 12.367875165476988 -0.6417959959185487 
C 2.44848168 -0.37176783 0.02440762 15.140410151424188 57.037816837497886 18.67259158635913 
C 0.97055 -0.11336804 0.14408474 5.158660697307995 -37.553107406662264 -15.107487015887799 
C 0.03643875 -1.18570602 0.13199269 19.161756997913198 -55.71613745946669 4.655156337659051 
C -1.31885621 -1.02277676 -0.12240472 -10.42847551623532 14.25130761878468 -4.140791043044764 
C -1.88054451 0.30133382 -0.21671189 -21.447521930820354 -48.891801370912994 0.44544774703094503 
C -1.01347643 1.32249195 0.04455838 55.159281825112444 24.641197703986336 -18.475495084391152 
C 0.442967 1.1279128 0.02120166 -60.46851807891125 37.73404235358683 22.74988428400328 
15
Properties=species:S:1:pos:R:3:forces:R:3 energy=-170036.12765284622
H 2.61748675 -0.63708907 -0.8706355 17.983685291903274 -28.742226981519263 -25.232174153133975 
H 2.79818537 0.94432988 -0.31833344 6.559587310059035 8.31677606893006 2.2804062075978013 
H 3.14025373 -0.3584227 0.83287876 -10.803690640142298 -5.367378245532152 5.651286334675897 
H 0.65767475 -0.04540672 2.13453249 6.7468142234565835 -8.58377197830792 26.41787424593635 
H -1.67717232 -0.20203513 2.15346416 -17.113941287848682 2.952443011845446 1.3142181920063216 
H -2.98156812 0.08360679 -0.19151346 19.129796749066607 -9.243950572090075 9.479211538620186 
H -1.56273823 0.26432959 -2.26003972 8.490835625426726 -10.424121181352389 26.47609568767982 
H 0.63085848 0.23558982 -2.09108059 58.747839564242426 8.069282172483746 -58.144947985219055 
C 2.47173193 -0.05714189 0.00637568 -17.328708895052333 32.4196442207724 15.476426774816442 
C 0.95123984 0.0107086 0.11137579 30.83872064554462 2.9705172962369475 -57.938734891045215 
C 0.13646811 -0.0899733 1.19577622 54.611407599364775 3.6016646191574853 37.62920865814561 
C -1.20810617 -0.10255208 1.17436227 -56.04707046803238 -2.329998429585532 -16.460868133777453 
C -1.86088836 -0.02455409 -0.07436555 -36.77350121781902 4.541060194023235 1.797500745348463 
C -1.0886037 0.06920523 -1.23802143 -23.19706214394114 24.674041389512606 -3.95265223326242 
C 0.29412231 0.17049847 -1.12419118 -41.84471354204924 -22.85398039875355 35.20715019743228 
15
Properties=species:S:1:pos:R:3:forces:R:3 energy=-170040.97339210173
H 2.98152852 0.90161174 -0.25685711 -5.193979191358413 -8.450833138242439 9.171134044905678 
H 2.93230446 -0.219792 1.22904223 -15.144999278874332 6.922510212997486 -22.441898098509355 
H 2.83059732 -0.88439732 -0.49960874 2.7307739261508788 16.446414161041062 16.495887800924137 
H 0.83942549 -1.81756986 -1.24738615 -5.552311781025674 11.049321611724482 4.875778343369515 
H -1.61918187 -1.6893793 -1.5182383 -10.100595996864486 6.436557190658517 -0.046440309646003264 
H -2.96198558 0.20922174 -0.18188671 -33.76409492036049 -2.338375069458355 -8.384200667815795 
H -1.85733449 1.71522508 1.19179211 12.1894589024553 2.795248202272801 12.548576505655376 
H 0.80924001 1.48142566 1.35768707 41.06576429806578 65.87414735394192 60.074491089921814 
C 2.50905312 -0.02480798 0.17956792 -5.965116246287215 -18.132737068349265 -18.324019489726012 
C 0.95866774 0.01046889 0.03505724 18.419495871288913 -51.81936585720184 0.3889398166997397 
C 0.28659211 -1.00078893 -0.72023265 -47.623281164577534 29.54974739779828 -7.934719943405538 
C -1.18903201 -0.89015716 -0.89330724 57.8819056032104 -8.024492525734539 22.645044659456826 
C -1.90794359 0.08323238 -0.15910243 61.70229017111967 -0.09997301497141685 11.845968049006649 
C -1.19441846 0.96219795 0.73818704 -15.067409821977577 -19.787301316388792 -33.94955377457764 
C 0.20521599 0.88543755 0.8136338 -55.577899185144176 -30.420868140087915 -46.9649880262594 
15
Properties=species:S:1:pos:R:3:forces:R:3 energy=-170034.05311383674
H 2.89257777 0.44780501 -0.49056969 6.60476234864837 -7.137639495620335 -2.971649755336402 
H 2.97128224 -0.21006178 1.1760063 -22.319032808234308 1.6234791351252862 -26.428615412975994 
H 2.70394757 -1.27775805 -0.11620639 8.816090922821544 -62.607988269305636 -27.854392091578514 
H 1.1634981 1.62291087 -1.15726016 -11.268874006850961 7.284217649363226 -12.53688786759954 
H -1.41480994 1.88894004 -1.35050515 -18.40702459134236 30.047562188065882 -25.335180498342467 
H -2.99114301 0.43222867 -0.24117603 -1.8571297566741856 -15.23545726576824 9.802886136559955 
H -1.93484818 -1.56131613 1.09852899 4.035309889312126 -11.234798253257322 4.778227960796198 
H 0.4136612 -1.72492227 1.33861948 32.16462391814363 -51.630376813729114 36.67887744158858 
C 2.41042685 -0.32194456 0.14685191 35.01250478756752 86.1196878689908 62.97971115023053 
C 0.96353438 -0.02421075 0.20151543 -2.249788308175903 19.22654077332827 -79.53457457508374 
C 0.39113665 0.95527622 -0.74862714 0.12153005577663333 -31.56190665481412 63.2067709784027 
C -1.01957344 1.07076192 -0.81520879 16.013933367154134 -30.84778861908758 30.110844714036023 
C -1.92801352 0.18003261 -0.10575953 71.16160600422087 20.78181859678233 -28.28294663198032 
C -1.25954715 -0.8684575 0.58428716 -60.55165717830585 21.976127750382652 -3.187099209641819 
C 0.12279508 -0.95928586 0.71539622 -57.27685582988231 23.19652259536496 -1.4259735248962506 
15
Properties=species:S:1:pos:R:3:forces:R:3 energy=-170039.78203337922
H 2.78315331 -0.47137268 1.08639284 6.618436051136128 5.928035622161624 -1.7953508517910695 
H 2.6865368 -0.85961425 -0.6437045 10.882618889000607 21.35679950583307 5.496314939565531 
H 2.87005188 0.99221391 -0.07586267 -5.985802894444265 -33.6285804769819 1.4563981354875613 
H 0.80294935 2.23373586 0.19469501 -14.780875139215725 -50.01627277979785 -18.54188090404011 
H -1.63641791 2.19471603 -0.29228807 2.3264634970457694 0.11593179461587493 6.7509088635303165 
H -2.99112427 0.1852092 -0.23705224 -2.8938705670721983 -15.091045607077394 -2.147987942971754 
H -1.71672003 -2.00746582 0.12398084 -11.38996886630351 -30.23754257793352 -9.668285961208257 
H 0.69677021 -2.1814723 0.33921734 6.012633281443485 -10.2828519484349 -0.4790657737006126 
C 2.42993724 -0.05594781 0.11292845 13.364984650678284 -4.098718112313201 2.606049268474842 
C 0.9399989 -0.03528729 0.12466166 22.62269904765565 23.41539670085281 -4.4822600716090495 
C 0.27905075 1.18120817 -0.00642473 -13.522994119309908 53.29850448289908 16.755790128801543 
C -1.13780803 1.2183975 -0.14403025 8.181138300162631 22.926615495317822 -4.196799742715372 
C -1.90405129 0.06462399 -0.16605148 49.822392224508114 -14.41833881393845 -11.408408383577347 
C -1.11257809 -1.15293666 -0.11579078 -89.38886012490637 16.86371170224798 31.461190130046507 
C 0.21213789 -1.22717084 0.15319433 18.131006955442352 13.868356198370014 -11.806611834292731 
15
Properties=species:S:1:pos:R:3:forces:R:3 energy=-170046.54675900092
H 2.69507644 1.14432241 0.38578607 -1.6465362395543872 17.87006584832817 -8.422073420400483 
H 3.00552134 -0.35657738 0.96947468 -0.48861044730428643 -20.352857319761558 2.301775888677663 
H 2.9770766 -0.1157996 -0.8337096 6.971292519210424 -3.7057251592763567 -5.3316767312836975 
H 0.67042217 -0.18535564 2.13760352 -3.738133648478544 5.770734088694789 2.554183827540877 
H -1.83592907 0.07403186 2.08007333 14.053654966745873 -10.208278034459518 -11.33345619268812 
H -2.95753602 0.24495699 -0.1032115 -11.540121084680699 5.468666336044191 -0.8229100018211358 
H -1.68749701 0.13421016 -2.13917317 -7.457632119210569 -2.628758927337304 -30.76585312805522 
H 0.76675479 -0.38021124 -2.14738456 12.93435018016083 6.423670873345667 -12.418673367469058 
C 2.48339294 0.10229367 0.11838266 6.31139615083735 2.4195800947260393 9.846708153335177 
C 1.01602046 -0.09653116 0.05055444 -49.04746884297768 2.7451259182772634 -43.42605334046436 
C 0.1629384 -0.07465518 1.16029788 17.688930497646744 -13.95047430584354 35.28248896598269 
C -1.2364394 -0.04555206 1.13309097 3.797379639606232 23.69867749066293 41.03468274261468 
C -1.87499935 0.1585064 -0.06262981 -16.672288168166695 -13.092475859255014 -6.047782203084247 
C -1.14765561 0.04135335 -1.22391933 59.7054683235199 -3.385807242412055 -1.0658408588803285 
C 0.29179107 -0.13227485 -1.205044 -30.871681727354503 2.9278561982662965 28.614478480174526 
15
Properties=species:S:1:pos:R:3:forces:R:3 energy=-170044.0716856213
H 2.97412801 0.10368776 -0.90457235 -9.907789795442923 1.1615046001685858 -7.362794895191756 
H 2.89444614 0.55636936 0.82534286 -6.841301630266663 -22.50712774263793 -13.750230634818022 
H 2.75644194 -1.20462956 0.25973208 14.368951738991772 -6.901352793884957 6.689173834025922 
H 0.7833902 -1.25308704 -1.6845501 2.158264268161149 -10.662288595267594 -19.27469933767072 
H -1.79440036 -0.89515991 -1.93515687 -4.051265111493445 -6.132026487694236 -24.388480265829976 
H -2.87404519 0.35406629 -0.23641145 -18.84539061508331 0.4231554971768681 5.437566993277394 
H -1.72245831 1.08360456 1.86775403 -11.612202402816235 12.65309358687717 9.85870747650521 
H 0.82388158 1.22846907 1.82554706 -14.000992654068625 -14.723795643140084 -2.9012499314448736 
C 2.47031374 -0.16782837 0.0417897 3.669171039695433 15.095570700191027 30.192854911794317 
C 0.96972792 -0.14598959 0.09945967 -66.01412167027658 40.48027108543737 -17.345885512911597 
C 0.16937232 -0.68780888 -0.9955628 69.48550961761809 3.877990568529594 27.461101497458987 
C -1.16865532 -0.46477787 -1.17736051 -9.959338622157462 7.340546520716402 44.635690416912375 
C -1.81329176 0.18041791 -0.11530538 -7.152892711742096 9.5100132403043 14.614177159776037 
C -1.15952806 0.66109845 1.05108558 -20.26295429711744 -8.075677305387785 -34.82510118683404 
C 0.20969665 0.62722729 1.09446904 78.96635284599834 -21.539876045567695 -19.04082933922821 
15
Properties=species:S:1:pos:R:3:forces:R:3 energy=-170041.32416256657
H 3.03242642 0.50048024 -0.34457759 16.786117502067036 33.74225565414619 -36.54747423977838 
H 2.79073297 0.19117515 1.2554904 -11.706945946972368 -7.6377939108127775 7.269375913144617 
H 2.84575917 -1.1011639 0.01297489 1.813038558521396 -18.958959068353415 3.315099105048424 
H 0.78298107 -1.44693081 -1.57939597 17.97456395641322 -22.20095586334522 -24.361687825104244 
H -1.83237774 -1.16634988 -1.89833222 15.924527203528514 -3.6713470213158512 21.44107106432713 
H -2.9072886 0.4522042 -0.35631136 9.33549121359948 -2.889345473958567 6.754667916247877 
H -1.70984129 1.4857593 1.44732639 1.0258514157275527 11.260738088650587 12.842405173674551 
H 0.73711529 1.24789177 1.832943 -0.34147614349056454 -11.502478381379042 -9.927686686782973 
C 2.42882389 -0.12513173 0.25782596 2.43547602585503 -14.792832958649127 7.210994385559864 
C 0.95342522 -0.02818302 0.02281749 -4.388428423837711 -35.45741772930647 14.21697928530813 
C 0.230861 -0.82220605 -0.92646726 -48.93799858724445 30.524058287558624 27.99689695002651 
C -1.24742166 -0.76699913 -1.01347004 56.92220165710144 22.296636206128134 -21.33040668680003 
C -1.83149941 0.19766355 -0.20003878 -12.795058896748984 0.7290309212079349 5.129929439171157 
C -1.08611607 0.85853522 0.81610788 -71.13799393554197 -4.739416037942645 -11.731544618761985 
C 0.23811205 0.67273663 1.01222387 27.090634401022385 23.29782610155061 -2.278619175280652 
15
Properties=species:S:1:pos:R:3:forces:R:3 energy=-170041.84973807386
H 3.00169784 0.76091782 0.28879544 -16.05464141786112 -13.107127864106175 -3.076175137305521 
H 2.77720496 -0.8697146 1.06966526 -8.338580946334005 13.691372407172558 -33.68944155637499 
H 2.83408945 -0.63018822 -0.78433147 18.846654700318933 -18.82308176373458 -23.491711400124526 
H 0.52343765 -0.78133001 2.02938603 18.622229766512184 -5.414288140312589 16.34692851851978 
H -1.94203798 -0.43241829 1.95627392 0.9414233288553482 -4.501390922553027 16.601479236014107 
H -2.97213042 0.11393957 -0.24216714 21.40737833093153 0.08825828885255807 11.045810395605653 
H -1.47577507 0.53253683 -2.28331321 1.2529231021101974 12.6693191762571 31.94036855674654 
H 0.95750859 0.76449838 -1.94057954 14.363174418852985 0.8287525421174833 -18.345412887226804 
C 2.47214067 -0.23821801 0.14030874 -19.758587845567654 10.230024806632183 51.20918859366847 
C 0.91851956 -0.13179823 0.02160344 67.9463637036813 22.567476547338906 10.81877546967545 
C 0.13442851 -0.37904195 1.11037139 -52.36419726614407 -9.53954137018442 36.55634655284866 
C -1.28890012 -0.20957076 1.12097286 45.23577041423437 -15.282528432211008 11.942323123965044 
C -1.85067168 0.10578587 -0.05606521 -42.51788399121739 36.329257079150324 -104.74599330243998 
C -1.05054094 0.48661436 -1.22143845 -7.639965149149009 -30.737099339318497 1.9440860140176324 
C 0.35418921 0.41179318 -1.12355911 -41.942061149223605 1.0005957990781493 -5.056570991768488 
15
Properties=species:S:1:pos:R:3:forces:R:3 energy=-170030.75415603849
H 2.66636871 0.72862188 -0.6089623 10.798799128325284 -33.96665805735306 25.866659562300548 
H 2.89299011 0.1215409 1.15271481 -14.450960750929015 1.6617123773081228 -6.155432223511022 
H 2.80260551 -1.19229459 -0.15216924 -4.483853815095611 50.27434775744252 6.443702948285022 
H 0.97066023 0.84183856 1.86619461 -44.11442364380717 1.3235351879690578 -12.08118869762118 
H -1.70927012 1.51327019 1.66497514 -0.18193577988784562 -11.228388890500726 -4.02952189678392 
H -2.87971324 0.40019474 -0.215568 -18.42146077676305 -4.99192358577377 -13.628997034303026 
H -1.77844299 -1.27696576 -1.67426202 22.995170181660917 19.230481256665954 -5.324156254206484 
H 0.67011207 -1.22081099 -1.94165286 8.8234086244998 7.7919933364218394 30.37813233539134 
C 2.39842486 -0.11177412 0.17479476 70.32556066266712 -26.665391858803595 -49.89305885813512 
C 0.96589698 -0.15789828 0.06014192 -64.85207633571078 23.384225023002173 32.80220313442066 
C 0.19619559 0.51919972 1.05965118 25.15042720764802 12.540521223286168 20.661307161284682 
C -1.21697126 0.80312614 0.96681884 61.349424216477004 -6.365947476441749 -17.616259826451074 
C -1.81052765 0.24017192 -0.18074101 -1.0693686764938122 -0.2487698398924007 30.54428246550752 
C -1.09912956 -0.59712438 -1.07138184 -75.52813231332881 1.440663476020901 8.224376892982953 
C 0.26104029 -0.68850093 -1.01688381 23.659423256559016 -34.180399929351445 -46.192047337518794 
15
Properties=species:S:1:pos:R:3:forces:R:3 energy=-170038.09680721813
H 2.76748435 0.29085874 0.94794107 21.087301514046988 6.087574799943296 17.141400160002576 
H 2.7432651 -1.42900417 0.23940524 -4.52590777269043 28.22510939625593 -1.3810439512635506 
H 2.67687489 0.11727339 -0.82678272 20.444632753838178 -7.445885375923454 3.4263635080250823 
H 1.07437958 0.69605579 -1.88251862 1.5614618802118136 0.40872642668245834 -10.12960710876831 
H -1.46114547 1.07051744 -2.16481078 5.462694541253771 -3.819734737975775 12.730250219091934 
H -3.02331774 0.32398366 -0.1977659 58.46816129877172 -6.151899662613354 -0.2036778087763238 
H -1.77409633 -0.5533564 1.98841556 -9.264964506855971 12.34377216688483 -28.581963267078148 
H 0.57325371 -0.76802985 2.09005121 3.3715086122327658 -12.775671908458953 28.697193055634468 
C 2.40259441 -0.33437508 0.14584515 -5.701549731375974 -21.52598415200737 -15.854849544654334 
C 0.92509012 -0.16705219 0.14796859 -1.4701180849961346 23.925572489709637 -104.36316520741414 
C 0.34439736 0.38562384 -1.13320765 26.85989378432172 -12.581499641191765 66.46756422280338 
C -1.01026267 0.64864917 -1.22984302 -17.441331063127286 -18.271986848024483 -7.072556893301533 
C -1.82802735 0.1917554 -0.16308136 -58.68490804130206 23.274390720207652 11.070546622636664 
C -1.23697026 -0.24060916 1.03421248 -55.04306306180331 -21.78139577558149 33.343890931768485 
C 0.10302638 -0.46276914 1.1818902 14.876187877474205 10.08891091627179 -5.2903449387062285 
15
Properties=species:S:1:pos:R:3:forces:R:3 energy=-170034.63700944578
H 2.6281023 0.45555758 1.04881959 14.078877380405972 -13.07879504184098 -25.88749325226737 
H 2.68595176 -1.23614348 0.52284849 5.53445805934883 -30.965602311704334 10.838687776689103 
H 2.8257605 -0.09978506 -0.78067373 16.900117594198083 9.810266686753678 -1.140693440801649 