12
Properties=species:S:1:pos:R:3:forces:R:3 energy=-259815.87460527365
H 1.96427888 -1.95266999 -0.37123594 7.939454926844408 -4.1493265829378245 17.708785885250162 
H -0.25091899 -2.51015914 0.32752517 2.060905988597373 14.629065143015461 -12.790389133467674 
H -1.4508459 1.26696695 -0.23703684 24.38113884773079 -15.872156602828719 3.42291751206381 
H 2.69739714 0.61353368 -0.07865834 11.361858978395063 -15.120637771294028 -3.3888014405545923 
C 1.68753633 0.19594499 -0.07569104 -7.194729664085396 -26.755209502332367 -2.5641364235845634 
C 1.28042384 -1.15755255 -0.04403899 14.233608053843888 42.611021933676504 -24.919715050652467 
C -1.09090174 -0.67506983 0.08349414 -12.020313388375534 -22.64001559239841 -1.0648933878641358 
C 0.68721091 1.22893767 -0.11900012 -54.99016951402198 -42.6420501271805 22.84926438845142 
N -0.03748583 -1.54104381 0.00445297 44.53157177156222 -50.09619000340899 16.689575067383288 
N -0.65561211 0.56640182 -0.19573748 -32.419778218550654 86.11057127678494 -7.316463681082036 
O -2.21299014 -1.10686815 0.30851287 -12.09171997433558 15.039302305711223 1.1228575064405035 
O 0.70836051 2.4289081 -0.0019953 14.208171006574362 18.88562670901377 -9.749000056562672 
12
Properties=species:S:1:pos:R:3:forces:R:3 energy=-259807.9727284401
H 2.07933771 -2.00068614 0.00270658 4.65514329362754 6.267462666883751 4.5891084770083586 
H -0.1983715 -2.36114366 0.62730328 6.255808417638266 -5.488110243744458 -14.234734583838108 
H -1.64905816 1.14159066 -0.12478067 -40.38836758268773 42.40921653633268 -0.5835306787963576 
H 2.54068872 0.73059481 -0.30748155 53.50403572997116 10.180181190582584 -5.861604741312895 
C 1.62804755 0.23175208 -0.25585469 -42.85668847989008 -109.71196400878897 12.320788583360617 
C 1.37426343 -1.15503773 -0.00484919 -6.267864660218532 77.15949953005574 -24.165219808290935 
C -1.06637932 -0.69540871 0.10886466 -37.559796623185846 23.55773198689115 -23.733030726381457 
C 0.56747519 1.19906593 -0.15844083 -50.623411969809965 -93.40311220407388 12.558157939711494 
N 0.04350069 -1.51406456 0.090732 3.4803800283374873 -39.58334924881692 29.293055087493887 
N -0.81513967 0.63703973 -0.08280603 96.7391789968674 -13.349311653906042 -6.568437092529431 
O -2.23597128 -1.07606665 0.17971617 13.451412031834968 -18.313579521232196 11.713690897085142 
O 0.85759035 2.31573335 0.03369345 -0.38982918248465154 120.27533496981658 4.671756646489693 
12
Properties=species:S:1:pos:R:3:forces:R:3 energy=-259814.26419237655
H 2.05105854 -1.86315407 -0.30446137 5.266693737932806 -7.22781288546307 3.246895421735105 
H -0.0299501 -2.55609807 0.22252647 -26.47791592298627 -15.311815840418678 0.899961095962758 
H -1.5903576 1.28436149 -0.09144583 20.639001867399095 -1.7741780170049346 -0.2935156112628853 
H 2.54561576 0.56255398 -0.13443224 19.96849358648045 -4.057851161585979 3.992719940604268 
C 1.55410572 0.16340555 0.02699503 28.218735608130732 24.663894318817285 -22.669957573823776 
C 1.25777065 -1.13102765 -0.13836806 37.10985935767267 -3.9849990597701868 1.998681215000754 
C -1.05020309 -0.68753916 0.05987401 24.99479056693054 14.072100413124945 -2.2701120950927085 
C 0.59234195 1.23172526 -0.06683578 -46.329151966920804 -97.145769759845 14.248573115451336 
N 0.00443977 -1.5983851 -0.08400105 5.492840483899142 19.83930194092206 -9.151043864735042 
N -0.72136324 0.70669519 -0.13843258 -36.55122380592757 -50.586908840534036 4.538585385499086 
O -2.12640913 -1.11868761 0.3472118 -57.06256373691832 0.26784377142614335 8.400355107932935 
O 0.79943803 2.37926071 -0.04437661 24.730437852665435 121.24619393451042 -2.9411421372718327 
12
Properties=species:S:1:pos:R:3:forces:R:3 energy=-259800.33621573338
H 2.12937091 -1.88038104 -0.1247854 58.638740470496764 -46.477804121674104 -6.2584136664775345 
H -0.11949769 -2.65578502 -0.33355733 3.487120235166073 7.33273670330383 6.936481556567927 
H -1.58415159 1.25118177 0.34469464 48.333641333407556 -27.8840186446055 -16.511091212561947 
H 2.6185651 0.51990726 -0.08717193 9.137108095795998 8.088499588364122 0.644819839587249 
C 1.58936451 0.1798615 -0.01800059 17.02346314199698 15.063739705838508 16.376089043875467 
C 1.40569881 -1.1644242 -0.01673602 -103.11007846199952 34.20382819576811 -7.833742538007694 
C -1.12857408 -0.71110815 0.06387371 26.82921777966854 -28.50651184552832 16.575384058063747 
C 0.54960248 1.24091816 0.04001722 61.312529766255736 17.913230920243606 -68.0465122201676 
N 0.10425236 -1.69531289 -0.03490365 -57.60344280431241 54.10900723911017 5.355180890247349 
N -0.69649648 0.62225528 0.14727436 -74.19074199225186 44.22464333844182 21.02335255664869 
O -2.32913966 -0.98076097 0.18143901 52.41521603085079 -10.817061958263187 -13.184365132152108 
O 0.84213832 2.43576442 -0.31919671 -42.27277359507464 -67.25028793517801 44.922816824376454 
12
Properties=species:S:1:pos:R:3:forces:R:3 energy=-259812.94052791494
H 2.08760833 -1.89602036 -0.16401012 19.22575338815336 -13.63188569437242 6.784797257398597 
H -0.15320832 -2.50800221 0.56446181 -4.094724267028424 25.269095877239327 -15.197470674363084 
H -1.3956969 1.29548015 -0.36183354 -19.97054624271203 7.97260099673755 -1.6356551456312525 
H 2.67316407 0.43884586 -0.32674178 3.202472193689282 13.382456537978138 5.967362191349379 
C 1.62327633 0.20777579 -0.12902409 32.87031076622921 -21.590172645257077 -16.332946502559917 
C 1.35740497 -1.12088526 -0.02673853 -59.77484952713246 -4.151136145854859 -5.854654644159071 
C -1.03018123 -0.65897664 0.03339522 38.410963554725214 -15.481738067283933 -20.308423419326314 
C 0.57299648 1.18124011 -0.16265086 -28.397702092118017 47.09379665161975 30.804713669571683 
N 0.01269878 -1.5902468 0.07808519 64.59921897067093 8.165323004864806 3.175115302145394 
N -0.6915527 0.59343084 -0.54474752 19.808380471312248 -11.203121415640856 25.09700478367993 
O -2.09352139 -1.03439808 0.40614855 -74.16268546629053 4.303944603376318 16.422345551259255 
O 0.59115692 2.36867227 0.23438539 8.283408250501214 -40.1291625175857 -28.922190741006695 
12
Properties=species:S:1:pos:R:3:forces:R:3 energy=-259810.20717081943
H 2.09344424 -1.9666487 -0.21024829 4.291901404827565 -1.3553744830689018 7.327936499707398 
H -0.17495056 -2.70510873 -0.02076678 5.951794732650281 58.24089513773744 -1.0568582644527191 
H -1.46499847 1.27727452 -0.13927261 -7.43179426442731 11.166319459461207 1.3706431148642686 
H 2.6688858 0.61148779 -0.02004869 -3.7587349175202425 -15.764191154003562 1.1546624127299976 
C 1.66731689 0.13048224 4.38e-06 -5.215153211965594 76.69275562284982 -4.801119050278783 
C 1.37035356 -1.15757677 -0.04638132 -37.11696835484673 -46.651065620606445 -16.484200348689352 
C -1.06758439 -0.75537693 0.04867043 -13.558273481265791 53.47998846496818 12.653298733918222 
C 0.55333832 1.21789897 -0.07983394 62.20030180768101 -87.65502255408398 10.196365276225887 
N 0.00770238 -1.62950868 -0.09549657 5.383084445293695 -33.511217396362845 8.821038168227748 
N -0.64592692 0.68151974 -0.16199277 -83.31563613126842 -105.05496727686567 1.7453518931843721 
O -2.24435095 -0.95462757 0.37551832 42.456708669246964 -13.11489617778212 -20.59919978397167 
O 0.71210911 2.38370968 -0.06741888 30.11277048741562 103.5267759777569 -0.32791983728641494 
12
Properties=species:S:1:pos:R:3:forces:R:3 energy=-259816.05997670782
H 2.14574015 -1.90220358 -0.10825785 -9.39662977511746 -3.7787017723020364 10.270135203531707 
H -0.23845291 -2.47803752 -0.1674794 2.599817778875227 5.382552011643795 7.236680455249164 
H -1.45024348 1.34584483 0.06253651 -42.65585545580442 34.27792659550383 1.5017676487285307 
H 2.77105938 0.59852061 -0.27165621 -14.009924258191232 -4.619917293618751 5.52884675415656 
C 1.74593356 0.18676886 -0.13749433 -46.14472477701416 19.77739852482906 15.51249707941037 
C 1.39213637 -1.10305031 0.04359447 -26.83236969201027 -27.750186881291963 -41.403499176154476 
C -1.09719389 -0.65379283 0.07433493 -20.20664558472205 -51.826528216323 9.951450540555816 
C 0.55959052 1.13262047 -0.07574384 31.140190744387755 30.14790992248801 -0.1101734476138324 
N 0.00647116 -1.48940318 -0.03128274 56.68193771157594 -13.132799703942919 8.275650609214692 
N -0.78506151 0.63354493 0.12938716 99.34188899327515 22.734397461135348 -9.915503561350727 
O -2.22035896 -1.1154205 0.17084047 -17.78559151443515 -4.096944124027563 -6.201891506293771 
O 0.74650492 2.34655098 -0.15475285 -12.73209417081932 -7.115105338272762 -0.6459605994340292 
12
Properties=species:S:1:pos:R:3:forces:R:3 energy=-259822.46331241963
H 2.28157095 -1.71831799 0.01025147 3.391403131930721 -15.90594538772909 2.4093535740205994 
H 0.04418434 -2.61133016 -0.03838267 -17.725305558249637 9.840100758463805 8.742621008240501 
H -1.56700362 1.22858187 0.01475048 2.737706235989005 -8.738793177902242 -6.417665875565942 
H 2.61666019 0.6882238 -0.34133849 1.0539020125836722 3.680448197848116 5.387802827237914 
C 1.60650539 0.29766553 -0.18090145 -4.702231061564959 -31.3420222297946 14.982663935064897 
C 1.41498863 -1.06624197 0.03426381 -27.999294680182633 43.049807738067926 -24.590378157215426 
C -0.99649577 -0.72962684 0.06927979 -31.707914428633615 -56.74670725713845 6.602223505787708 
C 0.47788124 1.24028033 -0.09759305 24.175547123785336 -2.7458125086632146 -16.994147274084195 
N 0.10860465 -1.59474284 0.10661604 68.56064272221467 24.043926916723613 -5.843012253124052 
N -0.77024464 0.59959809 -0.19199342 -2.99457404780829 14.496519995537433 18.038254404823373 
O -2.09459198 -1.23888921 0.26507816 -9.558826377864449 15.910605664442029 -4.685065116095113 
O 0.58233163 2.45573397 -0.03677252 -5.2310538863787714 4.4578712901446735 2.3673494209097363 
12
Properties=species:S:1:pos:R:3:forces:R:3 energy=-259811.90508724764
H 2.00050833 -2.00032838 0.29955311 16.120556466554596 24.34102015008394 -4.601118472567808 
H -0.05024484 -2.57285391 0.18041315 -13.476628516389837 -3.929605801222738 0.5534072667508703 
H -1.45723554 1.31930368 -0.11877937 16.768113181117283 -27.890928423843743 18.175640073813412 
H 2.63127857 0.51076464 -0.11847106 64.37596207059504 17.172809002062518 -2.324971734169211 
C 1.64437323 0.2171318 -0.07285851 -17.83071200525634 -3.2643151329089113 0.9627574353038133 
C 1.35340145 -1.1057516 0.13834767 -9.117952342610044 -11.814437067378906 -6.983097367728821 
C -1.03064354 -0.72498768 0.04222622 -39.04100806407246 0.784581893954575 17.23275937089186 
C 0.64861424 1.27197369 -0.16814889 -74.4188678735449 -89.33050824284778 45.60747195038043 
N 0.0778777 -1.56798025 0.12461359 7.244682375671278 8.207092365408453 2.63337888613466 
N -0.70585368 0.624984 0.18612687 3.1431633540461275 15.688769377979897 -44.32192928292176 
O -2.16918589 -1.19588231 0.00621415 11.793857143116048 9.204631117828598 -6.644267976814154 
O 0.55854554 2.4507217 -0.24829592 34.43883539659427 60.830891946705144 -20.290027777431195 
12
Properties=species:S:1:pos:R:3:forces:R:3 energy=-259819.37076933665
H 2.18288363 -1.7411756 -0.2215806 -20.62526531639587 -0.7185150601671371 17.60203946046086 
H -0.08377061 -2.59939084 0.15880942 3.5192192250751106 27.73277309922339 6.320812755767997 
H -1.53707453 1.25853182 -0.23431834 -3.5020437930368935 -2.70974694735347 0.35164455896472324 
H 2.68251115 0.73911043 -0.17565421 3.379298270687547 -4.203290927124183 -2.6864562361781985 
C 1.68184139 0.31538897 -0.08688325 -62.440906083846876 -65.61027371137963 7.199974550574283 
C 1.32481003 -1.04702192 0.02940271 82.80914824586635 21.40015193747386 -20.545169033806708 
C -1.05463065 -0.74915352 0.08783626 -9.006444846318843 -0.49401067635027124 -4.729029431395922 
C 0.52675367 1.18893779 -0.11617977 28.79821433641103 72.19448103800713 7.270292552813599 
N 0.09157939 -1.56766953 0.27646038 -9.785529273901616 -1.8576989507765291 -19.219386714954442 
N -0.76070156 0.59357337 -0.18759534 19.336384562691162 -9.381803454572456 12.176987622508742 
O -2.17784597 -1.21498717 0.11864478 -5.057513719500495 0.5184480764775555 1.8298570584246021 
O 0.69847562 2.43446809 -0.1023518 -27.424563979372714 -36.8705132376372 -5.571564771537446 
12
Properties=species:S:1:pos:R:3:forces:R:3 energy=-259807.26516248766
H 2.25158805 -1.63611635 0.04185209 23.659588085684483 -19.813379892844498 -4.559204441856482 
H -0.18738026 -2.53346531 0.23290475 18.20974665875426 -42.58933208091407 4.197765001047263 
H -1.63207569 1.10694107 -0.28506659 -11.400989887110137 13.85820557021155 3.650201460413787 
H 2.55043824 0.59151885 -0.31382308 15.738724461207871 9.800835851970474 -1.0184246185130152 
C 1.52060156 0.27354211 -0.23079937 53.48626620158861 88.14664024356232 2.07398203727767 
C 1.38782424 -1.01710064 -0.04346243 -29.375070028536364 -70.48472393517702 11.04468386561143 
C -1.03028278 -0.79788264 0.13339737 119.32862169327258 57.932346873067445 -38.260248071350915 
C 0.55526772 1.32754875 -0.07941341 -73.43233116879465 -22.920174115392967 -16.834032973094946 
N 0.19005746 -1.61924797 0.1389241 -54.475246883515815 71.2356949173882 4.5025755577785285 
N -0.77558162 0.58169212 -0.18042861 22.579255307794277 -22.39864053255229 23.302808921588202 
O -2.0706775 -1.32351171 0.21853036 -95.99300347496845 -36.763347032197416 13.96133286916679 
O 0.56867987 2.54810326 0.00346662 11.674439034623317 -26.004125867121758 -2.0614396080683197 
12
Properties=species:S:1:pos:R:3:forces:R:3 energy=-259815.59855456575
H 2.10568733 -1.77611597 0.4110864 19.77439484011815 -8.15856856818366 -7.739499410333202 
H -0.18919216 -2.56396122 0.29856445 12.277823915202049 16.84410059378015 1.4917865929797267 
H -1.56227426 1.13037218 -0.18427249 13.099787631828036 10.46661507855548 0.08655426400866699 
H 2.56026467 0.80840848 -0.419398 -0.03347335650198863 -16.490627498761647 14.944680901122881 
C 1.61630867 0.27714086 -0.17184757 46.2831598976304 -26.710521836193163 -15.075633490935394 
C 1.38902529 -1.03259166 0.08963428 -40.90886831539686 -36.22193908861658 9.63011793918298 
C -1.05211304 -0.70454804 0.0510263 25.63516002013009 -65.66778603213727 6.4202248773843955 
C 0.52961061 1.14319448 -0.16895735 1.5214427915328739 99.0743891099525 16.90098442938311 
N 0.0591266 -1.56142759 0.17419499 27.320483280296052 19.014626251562618 -2.007040067557879 
N -0.70004278 0.56086597 -0.17395594 -53.66762685826889 44.000903809199976 -9.920456735862164 
O -2.18086878 -1.11665212 0.1639852 -34.36309226306699 -6.207168409950914 0.5955134004717364 
O 0.69455339 2.38171381 -0.02074339 -16.939190397681877 -29.944023409207496 -15.32723388566591 
12
Properties=species:S:1:pos:R:3:forces:R:3 energy=-259808.4294912051
H 2.32595997 -1.72356768 -0.08474155 -21.310627191743585 -3.4330645827591306 17.855884614432487 
H -0.2083936 -2.51496238 0.5048264 31.34057552811781 54.018148444702526 -37.25533944112646 
H -1.68826178 1.18248447 -0.36326719 6.2262055810322146 -2.4421557558102416 4.504783556567204 
H 2.54930651 0.80577396 0.3105253 28.633637790823617 2.737566309105512 -8.663965498222899 
C 1.6646216 0.3110322 -0.03863637 -55.198145924092046 -38.12002473259648 19.542978305420945 
C 1.42262412 -1.06803797 0.06829282 6.50643288164747 31.157487130172722 -25.105828478087307 
C -1.05208097 -0.7506285 0.01220447 22.843166896630066 13.726481010897738 9.938517976222151 
C 0.52746705 1.22981503 -0.1042356 -34.98428698994384 15.207256069639207 -20.183210203379097 
N 0.11815247 -1.55924384 0.00163464 -1.8186996681976215 -50.81057959215518 31.04893469992952 
N -0.86263791 0.56804656 -0.32973739 65.88616446442767 15.889758930443696 5.089151425022425 
O -2.08419755 -1.23596977 0.40082257 -38.04726512482232 -16.135975697622875 0.7101087747681505 
O 0.62460641 2.45405306 -0.09002216 -10.077158243879442 -21.79489871983855 2.517985454273918 
12
Properties=species:S:1:pos:R:3:forces:R:3 energy=-259808.29465737092
H 2.37878587 -1.57226949 0.11473191 -12.869234374852725 -13.05006734116728 2.0788095147581713 
H 0.24360331 -2.15516368 1.12078286 -16.142533288010295 6.12395697547247 -31.042985435738988 
H -1.5509594 1.25922483 -0.38583337 -3.0511258535182173 -12.663283347130166 9.138463489252203 
H 2.61765945 0.74235323 -0.62627695 0.8379746723964958 4.6081065159951216 4.315666444421456 
C 1.65121842 0.3269224 -0.32957354 -30.631791315458656 6.749066097623979 -9.561466015514066 
C 1.46735368 -0.95459712 0.00576492 -5.691744177142059 -17.37303369995129 6.655117053569032 
C -1.04250138 -0.84128472 0.06577831 -54.2262220920984 38.162237590211525 5.494232637807791 
C 0.45361295 1.18578084 -0.18410026 50.16866619995302 54.952976236896966 17.159576425004076 
N 0.1828855 -1.51001223 0.28525462 20.263126241169186 -13.790440640685457 25.685024980958524 
N -0.78488041 0.59288296 -0.19860963 -15.521955188077648 -49.00442353898796 -8.277016675060315 
O -2.22460818 -1.27182293 0.16876168 84.87745494361525 15.656059690231887 -4.186036045075846 
O 0.6202484 2.396049 0.07309668 -18.01261576797593 -20.37115335268877 -17.45938756020309 
12
Properties=species:S:1:pos:R:3:forces:R:3 energy=-259816.88230390835
H 2.04292244 -1.87662684 0.11869505 36.42211398202139 -19.95745359253708 1.1846980740180402 
H -0.00772378 -2.53433858 0.44726114 -19.494228016376265 -18.887119657711374 3.2095610319055523 
H -1.60342707 1.12476548 -0.0560333 -1.0247533454384479 12.09096816379207 -5.8657705306494226 
H 2.64001826 0.43051905 -0.11413755 1.0671559344209516 17.742706296286702 2.603293420362662 
C 1.57053856 0.21368863 -0.07612502 20.092078670130753 -22.092582492080055 -0.30431369771276157 
C 1.31376527 -1.1185504 0.01752643 2.8489670815025225 29.413458613276298 -6.279337478843894 
C -0.98923115 -0.74700969 0.03579564 -25.418025514117527 28.94879700782812 -18.160224400208275 
C 0.51716656 1.21725692 -0.07645907 11.390674429826205 39.71729722259303 -12.907673949897662 
N 0.06809055 -1.63399829 0.01089827 -7.435429991756029 21.07780308746413 -0.5748433538093387 
N -0.75408294 0.62696545 -0.33185449 29.009826473809817 -30.820610786521723 25.797584300518018 
O -2.12867397 -1.04929279 0.28232926 -30.64624765983714 -24.523912887556346 12.904442587545816 
O 0.72490407 2.43708502 0.0481141 -16.81213204418623 -32.70934860319167 -1.6074160032287315 
12
Properties=species:S:1:pos:R:3:forces:R:3 energy=-259813.87546490532
H 2.19564174 -1.88260976 -0.02983478 -17.89832989297267 18.275152990218768 0.26670538322145615 
H -0.11542855 -2.58279868 -0.12316787 -3.4847580796413467 33.957639888294054 5.525511039552617 
H -1.41746707 1.24319722 0.49970359 -13.167597622553902 14.528026074923195 -7.691077593718416 
H 2.74782664 0.61622838 -0.08390455 -11.980814875136028 -1.3992652774648244 4.1308918089481725 
C 1.70706884 0.2493857 0.05386818 6.1562705989909325 12.686537297852993 -14.453903958766551 
C 1.41074089 -1.06043757 0.01086078 -31.490720631568724 -66.25528683979746 6.312284330801215 
C -1.03354231 -0.65505531 0.09275294 -46.17202237750572 -88.65785836911907 -4.075204466781179 
C 0.56598018 1.16723055 -0.06399227 4.054013844679346 -85.27301875668101 32.268792367977746 
N 0.04140202 -1.5540538 0.05293497 69.61411665340053 -0.45369394658864765 -10.273476847240882 
N -0.67817373 0.60729047 0.24859271 11.003556034253966 14.228447360649305 17.174763235147232 
O -2.19390587 -1.07301539 0.01018005 9.662152894755506 8.590321267948012 4.403433803360743 
O 0.54703068 2.29041593 -0.36101115 23.704132267477057 139.77299830976472 -33.588717916681105 
12
Properties=species:S:1:pos:R:3:forces:R:3 energy=-259813.10286929648
H 1.98737082 -1.93270334 -0.06064716 26.985953676496173 -18.240325426081622 8.32060034180518 
H -0.3789634 -2.50699067 0.10774915 21.403434290130708 5.525633179120412 -5.067130728188007 
H -1.29159903 1.52430351 0.26170619 11.598851243653138 -53.52113882692554 -1.520750272041689 
H 2.60300909 0.5122608 0.03876249 25.628694923784305 6.352477735173998 -8.455563378397123 
C 1.59773173 0.18034078 -0.11026964 19.363467529573295 -16.598412702787726 16.430352214965556 
C 1.28675761 -1.13437886 0.03148198 1.5754320379612088 4.518791660590089 -23.75511190008925 
C -1.08124767 -0.68659238 0.00253828 22.808999834815843 23.912073102915723 42.95207711069554 
C 0.58125999 1.173526 -0.07286365 42.42332187768138 65.18233579792204 -11.937050963592087 
N 0.0075709 -1.55283094 -0.03198232 -39.44081237320068 -17.594412259489452 -1.8251374906593365 
N -0.63531648 0.64639831 0.21280195 -85.96985819393826 44.68789144520252 -12.243477794409799 
O -2.19749856 -1.12067404 0.14396002 -30.98060887704841 4.010567733175879 -11.822249256433572 
O 0.77313299 2.41627564 -0.21233666 -15.39687596990869 -48.235480252995266 8.923443302165637 
12
Properties=species:S:1:pos:R:3:forces:R:3 energy=-259820.98217851546
H 2.20782399 -1.79749697 -0.05653768 -19.189862142537457 6.250887260295087 11.676320932624192 
H -0.09762364 -2.3866932 0.67074534 -5.199690105518594 -24.434650208277365 -2.140558774115124 
H -1.55710364 1.29262081 0.11804571 14.295262447517116 -10.476329324568807 -9.437251260888047 
H 2.7125903 0.60225352 -0.1190578 -8.844308720445229 3.91308019911803 -2.5590765251789382 
C 1.66525784 0.26623037 -0.02412278 -8.769560490776005 9.82622072311395 0.8308241714858046 
C 1.37646523 -1.04416448 0.0769637 -3.222665540290967 -34.90776240034688 -2.2158904277392497 
C -1.09223977 -0.74114465 0.0137216 -1.3877983879446947 -13.515727407936653 25.891855887897623 
C 0.54804567 1.2204531 -0.05014105 18.717812871969276 42.72971550550978 -20.909351278696597 
N 0.05786544 -1.52461269 0.18349966 38.23874676413488 20.013054369767673 -13.066171976800463 
N -0.757222 0.62569119 0.02906633 -17.84885150980541 13.153940521560795 -1.079097152359701 
O -2.19687064 -1.28906579 0.0143897 15.369494176122826 30.81499948132945 -3.336957344399464 
O 0.72855845 2.44444514 -0.25155898 -22.158578176604696 -43.36743109120715 16.34535374816996 
12
Properties=species:S:1:pos:R:3:forces:R:3 energy=-259810.41537609845
H 1.94769023 -1.91531863 0.1421657 40.017427343653566 -31.093412475743488 3.106200126204145 
H -0.39158132 -2.57677406 0.15561907 36.668431543989534 57.77618728526845 -21.593073163536936 
H -1.528672 1.22260711 -0.02945627 -14.09698368196573 17.35867815036177 0.9829448528002656 
H 2.69700932 0.40846454 0.12589807 -26.75152397051969 0.8549568156041258 -4.3128809507831125 
C 1.60144513 0.1484821 -0.01062401 31.347876628301417 70.05685005605594 8.940178794595585 
C 1.26880199 -1.13024421 -0.00351756 -14.651683493657337 -29.223248174125633 -3.4886890764106573 
C -1.06507907 -0.65239451 0.03740486 -2.9952796113309863 -82.64043792811067 9.373503893067658 
C 0.56652979 1.26008204 -0.07326034 27.202475113027667 -158.73139767058413 -8.755501396448118 
N 0.00925545 -1.58129839 -0.17351636 -80.11506836617988 -39.6266044431319 27.576104794195416 
N -0.72738806 0.62155601 -0.14258229 6.656554268677449 68.03758535932917 -3.2855342147158613 
O -2.15891364 -1.09018098 0.38998864 -0.2361681196307232 13.458036028200993 -9.150111809392456 
O 0.83559743 2.39146198 -0.1006827 -3.046057654365266 113.77280936851749 0.6068581504240719 
12
Properties=species:S:1:pos:R:3:forces:R:3 energy=-259807.18425309658
H 2.3638915 -1.61990167 0.15449509 11.09509074665814 -13.722804965653435 -0.0981278774229864 
H -0.03922945 -2.55826548 0.65016284 26.28855097424179 58.67150352019187 -38.00840695494795 
H -1.69308081 0.9776943 -0.39460958 38.64414933442386 -1.8959262638541332 6.717913392910087 
H 2.51698507 0.74510295 -0.38180753 40.17820214696574 18.43915322677756 -0.5977391865761091 
C 1.55969676 0.3323129 -0.24370357 44.01466289080309 -39.97615839959156 -1.185300471109687 
C 1.49106717 -1.00107413 0.0244181 -65.16984080155454 -3.032693451170658 -3.638894656734941 
C -0.97132777 -0.7577958 0.15818669 -31.983537186125115 -39.497686722235265 -44.160480933255144 
C 0.4951302 1.22628652 -0.20050718 -69.2074108657814 25.347033965523767 28.164918305754146 
N 0.19895387 -1.59651622 0.10699084 -13.895685816029832 -37.29729023229022 58.96188382060768 
N -0.73965225 0.5027403 -0.30149417 -33.33533760455972 36.423123115732004 -2.904251244513689 
O -2.14945682 -1.15467391 0.27239967 44.69456761769458 -5.172234790827842 16.647320706031604 
O 0.4917938 2.41726514 0.09236619 8.676587377442367 1.713980997397915 -19.89883371492197 
12
Properties=species:S:1:pos:R:3:forces:R:3 energy=-259819.72917756942
H 2.06133794 -1.89899409 -0.40189667 10.108900301653469 -11.285974732163245 -3.8052131734397348 
H -0.1246022 -2.5157613 -0.34463051 -15.123008227566078 -38.83954892647422 -1.57968913551832 
H -1.4397932 1.38075734 -0.11411922 -12.237254605557508 -5.133642244867902 8.150193114131886 
H 2.64990559 0.58983101 0.06488627 27.454452598850988 -0.31950050785591616 -8.443541524627207 
C 1.69300909 0.16982592 -0.16229504 -50.42477152883937 37.76353135137241 16.522580632681958 
C 1.32242015 -1.11193957 -0.29648384 13.071065860259571 -19.65245567608046 10.014035803750586 
C -1.08246099 -0.68883719 0.13478214 9.52857252550384 -3.5737314185849742 -12.413298040665053 
C 0.59023513 1.16356258 -0.01174016 -6.661007026707242 -23.393684317490496 -23.41398438798637 
N 0.05000518 -1.56790045 -0.14244764 -26.09535582351696 52.37130389167604 6.531048154931738 
N -0.75716263 0.62366322 -0.09448455 53.2855742902075 11.38299979601294 1.5528682350874718 
O -2.18979371 -1.03430723 0.47464964 -9.412874337634134 -23.878349538172913 -0.4381015856475732 
O 0.7165238 2.36580328 0.03482143 6.505705973345935 24.55905232262874 7.323101907300618 
12
Properties=species:S:1:pos:R:3:forces:R:3 energy=-259810.49925324606
H 2.00864354 -1.89839633 0.09754737 49.18386197975177 -16.96017112945847 -0.39600138103193977 
H -0.36702452 -2.46063254 0.1837976 31.613316740466207 -15.319355290632634 4.009033280741645 
H -1.62050782 1.20439014 -0.46839012 -13.149545868762285 6.082678544842094 2.9698200334615765 
H 2.58151659 0.71924754 -0.05003512 -14.586061342762356 -7.139859352619475 7.4633074587393535 
C 1.56087679 0.27400079 0.06966068 38.42053313057086 11.446352285424828 4.852168646332722 
C 1.38170728 -1.05135453 0.10220666 -41.52592927010544 -23.32338054510374 -0.5987566210340484 
C -1.00817554 -0.7443158 0.05861416 -43.506546873104114 38.98112765868487 -14.925240550885757 
C 0.47348313 1.25430076 -0.02525032 -3.1944702732671684 -80.24029936944281 -30.300408880716322 
N 0.09927658 -1.54812046 0.08907082 -33.20494472228118 16.950799585727594 4.306711123877917 
N -0.81535015 0.63860756 -0.23822529 43.91224589865473 -20.89425340513193 25.875123952930817 
O -2.12635693 -1.23353018 0.19642834 -0.9160242278593125 2.2250769833868658 -2.1031781372647558 
O 0.78174193 2.38391989 -0.20510154 -13.046435171301699 88.19128166268072 -1.1525777393301642 
12
Properties=species:S:1:pos:R:3:forces:R:3 energy=-259816.3566506288
H 2.2218116 -1.80020463 -0.04553126 28.206099499058702 -23.247100234642375 -5.907440282225159 
H -0.01794027 -2.50370946 -0.15090696 5.5488883156642865 -2.4321035507986446 10.543694632402216 
H -1.52606815 1.11316836 0.12014552 -26.997875921298174 23.77488428021941 0.48886895629243426 
H 2.4546139 0.85972804 -0.64343626 19.608353805538247 -14.426702409779761 16.50781478901033 
C 1.6633894 0.29653426 -0.12319027 -13.481756006595116 22.715091108676482 -16.665482741180547 
C 1.47531614 -1.05257537 0.01421568 -41.46083836703931 37.476818795453575 -7.761278199674123 
C -0.98393168 -0.77446347 0.12946959 -73.2704974272879 -18.20374047515349 -5.728688431847297 
C 0.500549 1.2123133 -0.06883178 -10.945665436582484 19.501785253905926 0.06352324764258993 
N 0.17932892 -1.54698269 0.16650698 -7.859791468937239 -20.945116827281563 -4.309768170535921 
N -0.70894733 0.55838752 0.23164201 18.959421538561568 -4.284682126296174 0.7840577610520003 
O -2.18975324 -1.18544334 0.00730156 86.22683628711488 9.064391177579513 8.80171165681109 
O 0.46278395 2.43664266 -0.27435355 15.466827553444622 -28.993527363524997 3.182987968073433 
12
Properties=species:S:1:pos:R:3:forces:R:3 energy=-259814.2168644116
H 2.00685289 -1.9346035 0.38610042 5.636876237318232 20.674033392756247 0.25337912630033715 
H -0.13968989 -2.45667533 0.31448325 -4.627699837147253 7.4347362864437985 -3.5666117490214932 
H -1.57029996 1.10016572 -0.47855739 4.664668994094468 16.55760741475493 10.905675993429709 
H 2.66264985 0.58117296 0.02710865 5.332946745624551 7.514830197390866 -3.951537561478664 
C 1.6428101 0.21581183 -0.08948929 6.278076951071412 53.73724878355388 18.056245681741615 
C 1.3586065 -1.03976428 0.21374953 -28.89584298317342 -63.64697739640791 -21.15155166999111 
C -1.02939726 -0.7278515 0.02039847 -94.76599649183056 2.2392688896719655 7.874173106589787 
C 0.52320118 1.23106473 -0.13057266 35.047852927144106 -18.44959319527138 -2.5288784064075185 
N 0.03394273 -1.47198895 0.06739363 96.59425387766339 -78.55931977177035 28.79244887448271 
N -0.72893904 0.61783651 -0.14284859 -41.958742093885405 1.2834081895748823 -16.11181696544153 
O -2.15393056 -1.27378273 0.15486329 23.693355525806016 41.9369941358917 -13.243021770219658 
O 0.70282267 2.43306827 -0.11519567 -6.9997486668644635 9.277761887590328 -5.328504659984179 
12
Properties=species:S:1:pos:R:3:forces:R:3 energy=-259811.52675982978
H 2.05855954 -1.81183913 0.26855282 39.22300787829681 -28.67052631193967 2.3781937543804283 
H -0.11863014 -2.32563831 0.75945944 -1.5630959416139583 -65.2521071366589 28.480836448228434 
H -1.46468149 1.17112256 -0.08777201 2.3693368569837525 16.402612303223634 -3.7335872105860752 
H 2.77355744 0.59397076 -0.28261232 -9.601282328794046 -9.090958312306398 4.904593794800659 
C 1.74093954 0.21565707 -0.12463787 -18.860693635689028 76.01056463298059 -11.156309944007285 
C 1.36749725 -1.03674623 0.09976897 -12.649493434179844 -43.49594444712692 16.986080133504522 
C -1.0627926 -0.71029059 0.0832216 -20.365602524369866 -57.34296535322741 -14.661396553849624 
C 0.59654933 1.20862853 -0.11501963 15.38502487436948 -50.371806831795254 -3.2327675497865185 
N 0.10610938 -1.55650162 0.21984651 -37.03460715405867 78.95356969511653 -31.455722309200873 
N -0.63957418 0.57202366 -0.05269848 -57.52955310908088 -9.786079494867217 1.5912674922168257 
O -2.24818102 -1.14530207 0.01385177 70.45939361180169 28.29832435931197 13.825058314497365 
O 0.52710291 2.39892613 -0.15919177 30.167566092155607 64.34531689728905 -3.926247556018911 
12