12
Properties=species:S:1:pos:R:3:forces:R:3 energy=-259816.21816708532
H 1.83504729 -2.05849365 -0.21540485 15.080613939330902 11.887649658792851 -5.265700019895798 
H -0.31687911 -2.52946911 0.02200986 4.8696535776640895 11.0306567884518 3.4186758301803035 
H -1.31301515 1.36945223 0.0451678 -20.291667767938577 4.3004049275523695 -3.5638440426988476 
H 2.75465411 0.52832963 -0.20973929 7.373971258555482 -3.812756181116834 -2.8405204781879534 
C 1.72414671 0.20088106 -0.10280155 -63.992433155330694 -47.93575331109056 9.905129998835514 
C 1.23251376 -1.13548036 -0.12988571 51.513917328747524 19.511083276731917 15.359631702478676 
C -1.09336744 -0.68133211 0.14145795 5.304042357614917 8.728788405732505 -15.534667189696654 
C 0.62548083 1.21302026 0.01729479 50.74762079533074 -29.037492864646854 -39.02765216162518 
N -0.04711217 -1.53622667 0.12645201 33.128059643086075 -24.108646657802172 -7.898000994699145 
N -0.63327398 0.62189478 -0.01500613 -39.98266855713711 15.023273562625018 22.989682201857487 
O -2.2109317 -1.13853255 0.13482241 -41.965574794755625 15.62659203722514 7.450085554070331 
O 0.75185427 2.41094369 -0.15445411 -1.785536996809829 18.786200357544814 15.007181971023346 
12
Properties=species:S:1:pos:R:3:forces:R:3 energy=-259812.8063389942
H 2.19067069 -1.72836255 0.22925074 18.133629991597317 -20.876984293231036 7.75102203344252 
H -0.22688438 -2.38634497 0.20262687 19.512623658271387 -22.128515241432584 -4.136440265624976 
H -1.53493787 1.19954882 -0.07610098 -18.783354387033096 12.176831094130598 2.750197674893353 
H 2.52015635 0.7350301 0.46345477 16.23168094264776 4.02017525529502 -2.5608196821173657 
C 1.58601161 0.3044159 0.13403757 22.26660173066114 -1.4058240536732878 5.553518946851061 
C 1.39377863 -1.0313082 0.09468677 -36.4435358392273 -0.6306919676386626 -18.962890065122725 
C -0.99577266 -0.74052908 -0.06135325 -38.22702848055288 -34.81159587093489 59.735176698199105 
C 0.52581603 1.2115338 -0.1284491 -57.43186517126616 2.9447624489269475 -0.813767321552242 
N 0.14103566 -1.54978858 -0.25987638 -1.5377478309229242 0.10582148437299711 13.311459060279148 
N -0.77209704 0.55919428 -0.19445605 34.74810701210264 30.595067623468076 -24.053275929854603 
O -2.00886928 -1.22474196 0.49936628 21.239660545391807 6.182104896311053 -38.26012118849892 
O 0.49148145 2.42141441 -0.18256932 20.29122901415135 23.82884743858472 -0.31405996089434884 
12
Properties=species:S:1:pos:R:3:forces:R:3 energy=-259820.52517822114
H 2.06748722 -1.92136392 0.27998321 31.776850949353697 -15.623791127913192 3.8311316640541593 
H -0.30417994 -2.48167765 0.18805745 6.4947774465809385 -36.359637814362905 3.822649486108193 
H -1.53679481 1.28972483 0.08122583 -10.875941530687491 14.168710439608347 -3.106746789706604 
H 2.61371041 0.65337779 0.1595931 17.18721672777809 8.878018055335481 -1.442946181535508 
C 1.61850817 0.26552467 0.03994744 -9.811773865303842 -54.17797933446165 -4.9320455520282716 
C 1.40014501 -1.1122929 0.11155211 -71.06999658509076 41.41250192953988 -7.131611967240726 
C -1.07267689 -0.70492712 0.07515227 3.9805510450245816 -24.66554261007199 -10.016541443621943 
C 0.52929343 1.23900093 -0.16040625 28.93829063335569 -20.654099740963755 24.34140672774511 
N 0.05774463 -1.57310598 0.00430657 16.876894474822468 69.34026551255258 2.3024695939898945 
N -0.74058907 0.67859735 -0.02673627 -26.414300181302053 -47.219720174373855 0.833166168052739 
O -2.18156809 -1.25711514 0.17186967 22.59292426699785 41.049555310180494 0.09061214362995808 
O 0.74231395 2.42994164 -0.2467411 -9.675494567350231 23.85171955493056 -8.59154503526805 
12
Properties=species:S:1:pos:R:3:forces:R:3 energy=-259814.36785081655
H 2.07115028 -1.84577227 -0.21967514 19.557567461756644 -22.963619041075386 -10.274670969034757 
H -0.15322185 -2.51341097 0.22613673 3.188104785889293 -30.601300298888745 -4.938003116966134 
H -1.42520268 1.27882239 0.35080247 -45.02230365271878 30.42295281348775 4.1134590537428535 
H 2.71752276 0.48029565 -0.28215792 -36.58033215515721 -3.1667090167464065 -0.6185408593746737 
C 1.60910063 0.18211411 -0.20535854 57.230544774730376 31.879228809407515 -13.418977454569758 
C 1.30508412 -1.10613561 -0.28968122 -14.26933091287118 -23.36834095008365 31.826074380995955 
C -1.07239106 -0.75753644 0.18171259 -48.24236987327572 61.75309548803803 -11.79666042407009 
C 0.59888014 1.20978855 -0.04973413 -19.06308957191403 -65.51896074751116 16.176461999794153 
N 0.03921555 -1.58021164 -0.07305176 -42.54294276157307 14.950958637743314 5.080300456730982 
N -0.69627068 0.62821288 0.31082591 69.00280811658877 -41.545377921089894 -20.642255760350825 
O -2.29882052 -1.01890027 0.20384696 64.48830912818718 -17.997254642138937 5.8059565312404375 
O 0.839649 2.37030144 -0.14430934 -7.746966525463322 66.15532568303652 -1.3131426523171017 
12
Properties=species:S:1:pos:R:3:forces:R:3 energy=-259813.0487228173
H 2.10037283 -1.99823604 -0.01301192 -16.81837302035422 29.04102542554452 -8.53578772965931 
H -0.2983998 -2.64149783 -0.21864588 10.595866015166191 30.64413808419533 10.950466825999962 
H -1.45731314 1.25100007 0.12658995 -70.79106064359519 46.019853077528346 1.546771929087163 
H 2.6861167 0.5277206 -0.0168923 -4.7438272922358085 6.038392872037671 -2.0063617779192526 
C 1.62023765 0.25228641 -0.0309217 -0.6636257755644716 -88.80761215162462 -3.346600441150002 
C 1.33566536 -1.14615749 -0.0915665 -18.493036935132753 13.770945742680187 22.708539447394294 
C -1.05660691 -0.77476653 0.10390161 -44.83493562661669 57.98948803183752 2.4361827751987737 
C 0.5621672 1.2577821 -0.04195662 22.835310832196676 14.443315762641914 -12.608303940127962 
N -0.03500809 -1.64178779 0.01213863 78.70650980917326 -12.781538165176231 -19.582264556693122 
N -0.72252331 0.6385551 0.11167752 89.4869714008347 -47.02414626662964 -4.897916436487541 
O -2.23028974 -1.09779581 0.16692674 -6.45592639163285 -7.696792065341737 -0.5151337066524507 
O 0.85478022 2.46476129 -0.22230889 -38.823874743880936 -41.63707034769326 13.8504064251884 
12
Properties=species:S:1:pos:R:3:forces:R:3 energy=-259814.7391934716
H 1.98739039 -1.84086743 0.35858824 21.70588506297934 -31.608220081608135 0.0037377079387228337 
H -0.22145564 -2.48076446 -0.07066122 -2.916874309554205 -19.926353063949236 7.561074846564189 
H -1.39943669 1.27369739 0.28053474 7.584085703972475 -1.8186261472927354 -16.777689871889212 
H 2.69665641 0.61497859 0.03798146 -20.723597155038863 -22.668413634821167 -10.686154429650443 
C 1.67553189 0.15852044 -0.17840522 -5.872096885932763 37.397428076387115 14.399213892099704 
C 1.27679128 -1.13449261 0.00838774 38.79005157017022 51.772218798212094 -0.931966406009119 
C -1.1070545 -0.72705242 0.02745143 -5.204485565830839 47.61430687089725 15.136290609108475 
C 0.58666588 1.21659048 -0.14499545 53.432291185012836 -28.1085621605169 -0.41553659695278994 
N -0.00807642 -1.50195183 0.02927155 -8.10657150111353 -55.372171091778355 -13.38997464341326 
N -0.66704396 0.64328318 -0.11348607 -81.32332633275078 0.01519748253257355 21.711673055507543 
O -2.2383241 -1.13926004 0.26798802 12.87125264227395 17.330165083297494 -14.540542416069522 
O 0.8107951 2.40943632 -0.01671587 -10.236615600008903 5.373031054461051 -2.070126933055339 
12
Properties=species:S:1:pos:R:3:forces:R:3 energy=-259813.53654631926
H 1.96121985 -1.97927749 -0.35447995 22.110673377966208 -24.131025472592647 -5.898462431081735 
H -0.18572908 -2.45433013 -0.01860232 -13.345316622800219 -21.222555076795334 -4.064654216930031 
H -1.41997862 1.35825268 0.36428778 -19.110815311574495 10.249533934490008 0.40249849454598235 
H 2.76307568 0.25603629 -0.26921535 8.417363339203588 20.608161033620444 0.25413093684384924 
C 1.69652357 0.11664269 -0.14650815 -32.665040399787365 20.27612046819727 13.856302327431841 
C 1.28054207 -1.17555178 -0.21275775 74.03381636405679 59.569757033847594 -1.9919635387720531 
C -1.01521488 -0.67447179 0.18279245 -68.35661628205067 28.884262254832823 -15.182849500859135 
C 0.59462574 1.19704122 0.04096573 18.141815714281645 -52.55397843807588 -33.30236703618147 
N 0.03161071 -1.48214902 -0.13290676 -68.52701876643977 -56.3446249857798 16.00260166123331 
N -0.70312232 0.67124272 0.21975606 39.4369560831573 -36.07571312372451 13.552792616388638 
O -2.17947781 -1.07985056 0.23033229 13.190742477740448 -4.739655573794048 11.038250786433903 
O 0.65180404 2.37001747 -0.18724522 26.67344002624652 55.47971794577409 5.333719900946902 
12
Properties=species:S:1:pos:R:3:forces:R:3 energy=-259811.1133699354
H 2.14462457 -1.81473193 0.00357994 70.75762404754565 -58.24796144535382 -0.29417137030162693 
H -0.01639716 -2.47708351 -0.38991244 -8.217958043657982 -37.59906152967918 0.3190155070478776 
H -1.60099352 1.26237181 0.07537198 19.95702313949718 -7.051969854112394 3.087139238701914 
H 2.65048614 0.62320917 0.25968185 37.933440534206156 20.223615869719215 4.755944011689448 
C 1.66888158 0.26072511 0.16909598 -28.87843157274694 18.198196761760872 3.065973518842059 
C 1.46569927 -1.06621814 0.03693952 -108.83407341414457 36.23757769657846 -19.38387669560545 
C -1.05970642 -0.68667981 0.13943604 27.10854029882528 -65.82317365043498 -36.284535024200764 
C 0.54879572 1.21207238 -0.00519972 -33.616915555347 -8.286141568013509 -20.73636370442601 
N 0.17283559 -1.52079177 -0.23360374 -17.06524317493005 69.71283862716786 38.74671929748722 
N -0.77295423 0.62512825 0.12815321 7.106803405125873 13.38323562240572 11.854090923175512 
O -2.14816161 -1.22362799 0.22366481 2.572728882887858 3.6301622705481535 4.6963066996163985 
O 0.50381943 2.36961404 -0.38367853 31.176461452738558 15.622680013592577 10.173755226331334 
12
Properties=species:S:1:pos:R:3:forces:R:3 energy=-259812.62950457542
H 2.15401001 -1.89248804 -0.40859096 -13.821873199166335 15.26288530657492 16.27595594306277 
H -0.111515 -2.3783186 0.31799408 -11.70391854584053 -87.34399948088985 -2.5681136673746896 
H -1.57992237 1.15719118 -0.17200747 -18.06309616992753 28.15632584645085 -2.365753305781082 
H 2.56536016 0.692004 -0.71546312 1.3207224204466435 2.818837740351803 3.415280824524034 
C 1.64100988 0.2877303 -0.29126352 -29.512724878903974 -30.671656247401547 14.050695157413687 
C 1.43752058 -1.08146768 -0.07044735 -21.184669280179136 34.71876861358998 -12.636252556374078 
C -1.06543658 -0.71742234 0.19348273 60.46251426695257 -26.25137548443248 -26.320563399214436 
C 0.47321345 1.22188777 -0.06466656 52.83702562113984 42.51016429620436 -14.682095060217138 
N 0.15753482 -1.46472406 0.38672045 27.84298805057385 70.14812270200882 -3.2398184417293 
N -0.76532663 0.62722315 0.05740536 -33.3963409824784 -40.128615854083236 12.739154549330472 
O -2.07531587 -1.36207268 -0.03616302 -14.177972887802943 24.380928957405548 15.278568975736581 
O 0.55024541 2.46499392 -0.11631744 -0.6026544148140554 -33.60038639577915 0.05294216644423211 
12
Properties=species:S:1:pos:R:3:forces:R:3 energy=-259802.55230880633
H 2.06959769 -1.73625439 0.74146554 12.271925641316514 5.213137316186461 -15.732394548461393 
H -0.02239511 -2.55533746 0.22263697 -8.18574284328638 -41.44367953649575 15.833890157656578 
H -1.49587552 1.18514106 0.06346073 -25.2901015112579 29.099705780033005 0.7288732070087439 
H 2.74185287 0.51978472 -0.06191264 -3.299652600096075 16.378297042664144 2.7729855979448876 
C 1.68504235 0.24788965 -0.1537172 -15.217751771722217 10.09020583285462 18.081099305056238 
C 1.39687218 -1.04224365 0.19510913 -21.247503565793682 -37.464799313325756 -0.7639616517761324 
C -1.14841094 -0.68931005 -0.07031982 90.05284283260585 -83.1937171261885 35.4724408961452 
C 0.55937795 1.20235689 -0.1409132 16.50292090555122 48.74503941490789 -15.360191410012646 
N 0.16819731 -1.61260808 0.026153 -39.26066481145103 90.94021288069636 -19.828810982123244 
N -0.78437425 0.56413764 -0.25172599 48.49543357117767 48.70633184430643 -7.304842634825855 
O -2.17585667 -1.16868876 0.29388489 -42.18756049466962 -10.917642113610436 -8.15614356414347 
O 0.63648154 2.46072266 -0.02986216 -12.63414653819541 -76.1530908362074 -5.742944372468911 
12
Properties=species:S:1:pos:R:3:forces:R:3 energy=-259817.71425602492
H 2.21512543 -1.91114501 0.1125195 2.9655985105358615 -3.612759160868999 -3.9438510694549325 
H -0.17876701 -2.46152077 0.64465734 9.084775441369692 18.850746968750574 -17.79805805109752 
H -1.43432637 1.24407111 -0.70490657 -9.792779383780218 2.7412186379288834 11.208006998352639 
H 2.63372514 0.51154152 -0.31031909 34.55591980926738 19.69143717134367 0.2798703684802445 
C 1.64854734 0.21622576 -0.06523937 -19.3392234182766 -31.06323688757195 -14.87243001057769 
C 1.43139315 -1.15646298 0.00557548 -54.79961281512572 40.10390571511525 21.875472888309467 
C -1.0645325 -0.69393552 0.00968704 -1.10264992998626 -23.46014365804434 22.47473704075144 
C 0.56135028 1.21974133 -0.13135349 -11.2243428690899 -6.773709830613362 15.786527279236362 
N 0.09142533 -1.56373857 0.16754917 -3.284826279551072 -0.06374618199934116 3.1752421849973747 
N -0.73935853 0.63976392 -0.26647579 12.713571646072221 -30.44506007525857 -10.050725106930814 
O -2.18933215 -1.15064459 0.24231415 24.07384755337014 16.549898392131315 -16.193489204201555 
O 0.61840964 2.43553878 -0.00344787 16.149721735194472 -2.5185522767341686 -11.94130331786501 
12
Properties=species:S:1:pos:R:3:forces:R:3 energy=-259815.16779276746
H 2.30371086 -1.6847677 -0.10090369 -18.05146800874507 2.5296148012774258 8.691577341291794 
H 0.03533133 -2.63879634 0.16061166 -0.4698472008847397 29.958438249849344 8.783576895546215 
H -1.56663745 1.11011151 -0.08401641 8.89107275923694 0.8537045885789699 -1.7655310099334984 
H 2.64950142 0.80365061 -0.30056031 2.3501348567769833 -7.751134686441942 -6.162334887822985 
C 1.64086697 0.3682478 -0.28373774 7.587749891006312 -72.57709449942351 19.373076237513484 
C 1.4019609 -1.01885313 -0.0138327 9.710207106845862 25.407853541180227 -8.939877596049762 
C -1.01934959 -0.76773242 0.05380724 -32.609242776263045 -70.63928266456318 40.15062825017033 
C 0.5574042 1.26780163 -0.17525606 -48.81353362437761 -50.82180338836077 14.765212814832907 
N 0.14778687 -1.60007711 0.32529069 31.95374106068848 20.849317902394 -46.17791709392812 
N -0.7156529 0.52399108 -0.1105058 -5.538367711339303 44.44806862510633 -10.59756411090485 
O -2.16791451 -1.24049656 0.17516127 38.50821866785793 15.962490078512738 -14.016384611252832 
O 0.51207391 2.44739497 -0.02829233 6.481334979197258 61.77982626606934 -4.104463415283732 
12
Properties=species:S:1:pos:R:3:forces:R:3 energy=-259810.49925324606
H 2.00864354 -1.89839633 0.09754737 49.18386197975177 -16.96017112945847 -0.39600138103193977 
H -0.36702452 -2.46063254 0.1837976 31.613316740466207 -15.319355290632634 4.009033280741645 
H -1.62050782 1.20439014 -0.46839012 -13.149545868762285 6.082678544842094 2.9698200334615765 
H 2.58151659 0.71924754 -0.05003512 -14.586061342762356 -7.139859352619475 7.4633074587393535 
C 1.56087679 0.27400079 0.06966068 38.42053313057086 11.446352285424828 4.852168646332722 
C 1.38170728 -1.05135453 0.10220666 -41.52592927010544 -23.32338054510374 -0.5987566210340484 
C -1.00817554 -0.7443158 0.05861416 -43.506546873104114 38.98112765868487 -14.925240550885757 
C 0.47348313 1.25430076 -0.02525032 -3.1944702732671684 -80.24029936944281 -30.300408880716322 
N 0.09927658 -1.54812046 0.08907082 -33.20494472228118 16.950799585727594 4.306711123877917 
N -0.81535015 0.63860756 -0.23822529 43.91224589865473 -20.89425340513193 25.875123952930817 
O -2.12635693 -1.23353018 0.19642834 -0.9160242278593125 2.2250769833868658 -2.1031781372647558 
O 0.78174193 2.38391989 -0.20510154 -13.046435171301699 88.19128166268072 -1.1525777393301642 
12
Properties=species:S:1:pos:R:3:forces:R:3 energy=-259813.02945919515
H 2.0842737 -1.75454643 -0.02212951 24.35019247587899 -19.295808138120346 3.358497783710029 
H 0.04983117 -2.59759628 0.54371534 -9.625773090868424 38.21472558719494 -22.13087028203103 
H -1.59323791 1.1896791 0.12451796 40.162268269563256 -28.423880277541635 -3.9151482710232104 
H 2.68304694 0.62734368 0.01542549 19.735598332938203 13.612423999356457 -9.953123734052495 
C 1.65640202 0.34225132 -0.07012164 -50.1244801361165 -85.29844157409798 13.589736871093876 
C 1.32136271 -1.01040456 0.02662072 17.63753227020512 26.71974040900903 9.432262511745213 
C -1.0204941 -0.81807726 0.116864 -48.64717004647305 55.790967510788114 -9.739862119577964 
C 0.51142305 1.22797271 -0.08167457 30.411221485874243 -11.41160061383466 -0.2884758718150515 
N 0.06828962 -1.58107834 0.21237559 60.40873728249157 -51.636891714558864 10.6650705314428 
N -0.70574147 0.56454207 0.13578791 -48.73723789824264 37.72146316392504 -0.9585786019357743 
O -2.17625448 -1.16104556 -0.03677029 -10.752727609024756 -18.749706714837263 10.10813663289949 
O 0.67802592 2.40457222 -0.30358604 -24.818161336226 42.75700836271716 -0.16764545045588214 
12
Properties=species:S:1:pos:R:3:forces:R:3 energy=-259808.9887605782
H 2.04434875 -1.85063011 0.47720771 17.118111820469395 -26.411045102529272 -0.2149668251394714 
H -0.32037344 -2.4560205 -0.03349062 20.76519694317285 12.084016880817199 11.252161045020896 
H -1.50917264 1.35832217 -0.06119014 2.4262040910920626 0.8946853781266609 4.012118787104765 
H 2.7870291 0.63312388 0.1018361 -38.627212252416 -18.343647199688494 -4.993717733017197 
C 1.72102621 0.19906442 -0.00897005 -31.779152628005058 9.661780546946892 1.0865393652478434 
C 1.32509657 -1.13065733 0.15397991 50.90409581152814 68.08349442114633 -1.5438204205023023 
C -1.0411867 -0.68596386 -0.00962623 16.137319232868617 49.77263161593178 40.32460717083583 
C 0.53206226 1.18370637 -0.16450476 43.756517949716674 34.05999996103217 20.69571494477135 
N 0.04317128 -1.48341312 0.10784282 1.1170185236072956 -59.13624101818703 -18.479184173666965 
N -0.73868233 0.70292345 0.11554559 -22.00941493298033 -62.6218683046555 -25.295478023882957 
O -2.08813038 -1.25393238 0.07864055 -79.56366632281873 -0.580620673948126 -16.113722579863335 
O 0.6034446 2.40877413 -0.28297938 19.754982949586143 -7.463187690813652 -10.730252742729512 
12
Properties=species:S:1:pos:R:3:forces:R:3 energy=-259812.17722575337
H 2.15705038 -1.75770784 0.55703003 12.299148535082141 -15.12354066121598 -2.033381896285921 
H 0.03011403 -2.58691514 0.26249433 -20.546883731040015 49.54152576634876 -13.153590704352064 
H -1.51530606 1.30713772 -0.02976735 -22.27595785871841 13.370293571503684 -0.2949397823397908 
H 2.60245514 0.59423976 0.04015936 11.86623491651322 17.224096948146816 -2.6647995864050715 
C 1.59043331 0.23804796 -0.0774623 25.57759552324641 -8.776164328184237 33.21644362896957 
C 1.40690237 -1.06170804 0.22051241 -56.48286563174441 11.83997135197425 -28.75476703908652 
C -1.04432304 -0.73212247 -0.04948858 -48.957339328513676 -6.403554605112008 58.30930515391286 
C 0.49439728 1.19409455 -0.06359344 51.79201726640528 10.794976041271209 -42.15806793942089 
N 0.09121772 -1.53212203 0.03196113 35.37119905265398 -63.30850493762824 23.002288665403352 
N -0.74483841 0.67005367 0.01195481 -25.75615882807787 -66.39833836174793 -7.381203581118386 
O -2.19399766 -1.19449226 0.14278388 45.690283763166185 22.76217531915076 -28.43684130158042 
O 0.7227267 2.37464653 -0.25613073 -8.577274864793878 34.47706389549292 10.349552010661196 
12
Properties=species:S:1:pos:R:3:forces:R:3 energy=-259811.1472019085
H 2.00633834 -1.97734507 0.12120686 19.64460672657335 -1.0527007758635178 -4.527429181093153 
H -0.14169747 -2.50216531 0.08071335 1.2414064081061122 22.000166714638297 -4.52341280520849 
H -1.3493742 1.32336253 0.46779589 1.2755580542467269 -17.077509307835555 -27.9479498146881 
H 2.57629434 0.61160601 -0.33850769 64.7467113924407 19.380966690757223 1.037356251521172 
C 1.64620513 0.21513098 -0.14425933 -28.980830777579598 -46.13894034194909 -16.43318632726681 
C 1.36270944 -1.11941325 -0.04458528 -12.083459544925322 28.862420616976436 -3.5448471895331304 
C -1.1056433 -0.69891467 0.12733723 -4.915046807325989 10.031903755279988 -30.272990326478006 
C 0.60255126 1.19075907 -0.1863596 -40.47816862472185 -40.32582263740854 31.037044472295776 
N 0.0575504 -1.48450421 -0.07977102 -44.01018760217341 -65.30164481087849 21.949363769362037 
N -0.8062 0.63710346 -0.13053434 25.98684371118935 44.05877306209262 34.764193860420136 
O -2.23499391 -1.14093859 0.32207329 25.45022529881552 -0.8546081842164404 7.644693017661599 
O 0.81457915 2.35273138 0.02712614 -7.877659420466641 46.416996404228115 -9.182835726993027 
12
Properties=species:S:1:pos:R:3:forces:R:3 energy=-259820.64118224615
H 2.17953915 -1.73837264 -0.13814996 26.439395712110166 -42.57520658060757 0.20166072717614372 
H -0.1282697 -2.51649156 -0.01722994 -3.107650385344074 -33.158575561897976 -0.1860221192142539 
H -1.46280797 1.29469339 -0.30389982 -17.224227388461934 9.491998246965125 6.833494184496184 
H 2.68860728 0.57574064 -0.067521 2.0417810667586287 4.328085548241965 -4.285337885334916 
C 1.65708008 0.22180065 -0.07438111 -23.69325117355392 27.35461951076306 3.5776161683334693 
C 1.35931391 -1.08996665 -0.04436882 -8.99996907758364 21.46706189002539 0.14786358375734968 
C -1.11977913 -0.72691732 0.10291367 73.60943709955988 16.375893383402786 -9.196814185489746 
C 0.55087312 1.19569077 -0.07992495 35.28059165230821 63.920776361129825 11.125815369974227 
N 0.09713199 -1.55402814 0.06967089 -46.081556089864485 33.5788922034894 3.9456902778981298 
N -0.7615577 0.65768689 0.04992066 9.301263674911887 -30.99453397359803 -9.701107116134645 
O -2.21248518 -1.21576415 0.1347979 -24.16231810419003 -2.914279733104355 0.6298334332009611 
O 0.75044131 2.45052208 -0.13453919 -23.40349698665069 -66.87473129480962 -3.0926912528418566 
12
Properties=species:S:1:pos:R:3:forces:R:3 energy=-259805.88189197355
H 2.04607506 -1.95065311 -0.18365959 2.2437987260697834 25.221985578702025 16.142291380516795 
H -0.16224597 -2.49094772 -0.35992676 9.856184049318152 -0.3991212762054104 10.381202760214638 
H -1.33160252 1.47235475 0.13026612 -3.7789934842794874 -55.06482999293376 -19.30081941786306 
H 2.69406106 0.71444699 0.29829727 8.04103828679704 -2.87367840629156 -3.528884852425533 
C 1.71020095 0.26248816 0.19246265 -58.51250389098638 7.585985389289047 -22.73719006969997 
C 1.39228043 -1.0534844 0.04958986 -18.739831197161603 -47.71849429386811 -12.457953689636 
C -1.10366078 -0.79332244 0.08906004 29.896533647935296 60.37670588438218 -11.585609180026324 
C 0.52505367 1.22140259 -0.10855173 73.17764052441683 0.9202244060061895 17.73351855481804 
N 0.04182379 -1.56678243 0.04401889 26.636307225994884 8.331615433506578 -12.102840604110119 
N -0.74156464 0.59210961 -0.13503736 -12.523694422635636 66.13626123807114 28.569566693857524 
O -2.23431562 -1.17556793 0.1906688 -25.172309163419992 -14.588518363970806 3.8188228415909795 
O 0.74778466 2.44335201 -0.270936 -31.124170302048878 -47.92813559668752 5.067895582763032 
12
Properties=species:S:1:pos:R:3:forces:R:3 energy=-259808.30506785976
H 1.96671611 -1.8713103 0.23795852 31.966999725809945 -23.580255471849302 3.344543041634239 
H -0.13512346 -2.49874228 0.11675811 1.479590423515969 22.442118661224015 8.80072268205827 
H -1.63312733 1.17247126 -0.37702426 49.466912720278856 -14.452266339901266 0.4014537862039726 
H 2.64130185 0.68485614 -0.2076805 46.286865588400865 12.438003436348856 3.472769428860735 
C 1.69629034 0.24394958 -0.17399513 -99.38741384907321 -43.07071613476069 26.48023064566914 
C 1.30135064 -1.05863233 0.10320772 72.32044132121366 52.2305991095767 -29.597872759151432 
C -1.03292074 -0.72258887 0.06184675 -37.531670133782754 55.76657872932374 -28.725729839119673 
C 0.51764106 1.16797453 -0.09780712 44.12775582983353 10.503473954145363 -29.479368918685594 
N 0.04662129 -1.46800231 0.08802822 9.042314747155908 -100.74715333941447 12.926805986662684 
N -0.71424555 0.58558981 -0.4035139 -75.6922036991504 2.888043442449456 25.11007846071814 
O -2.13449665 -1.15259554 0.31142676 -32.004010386493796 0.2840681749850284 1.3857575899235837 
O 0.67662305 2.36064937 0.0592698 -10.075583473529626 25.29750577787255 5.880609895225938 
12
Properties=species:S:1:pos:R:3:forces:R:3 energy=-259823.33510445378
H 2.15100556 -1.80748203 0.05995817 16.60855265855677 -20.640798386284615 -0.7166568785871947 
H -0.10691691 -2.50008838 0.36639562 -5.888371093975602 -34.248324944718824 5.443034814123033 
H -1.41913725 1.28441014 -0.33955584 -5.433614651729246 0.1509123296680275 1.043676677699279 
H 2.70747639 0.78547919 -0.01290993 -28.40184653667571 -29.50014806088427 5.288174886191043 
C 1.68397794 0.25885884 0.06599503 15.810875742785155 23.93950944446973 -17.002978083417847 
C 1.37387731 -1.07146497 0.02210892 -12.33365948499986 5.757624837025189 18.96081250664917 
C -1.06989972 -0.70151508 0.05197163 17.14761741974963 -33.61653490679106 -1.2700914192221355 
C 0.56902857 1.19249421 -0.0727332 5.11421375284124 -16.11311662530855 -2.938385103338606 
N 0.07250495 -1.56539637 0.09496968 15.97283636714388 59.542790277428026 -12.188883779247723 
N -0.67554576 0.5925586 -0.22593498 -37.732873134034925 -15.342028189042653 5.0042632395841595 
O -2.19088921 -1.16188524 0.20502521 0.9784138305814014 15.281246559659689 -2.6398261951647477 
O 0.58941988 2.39598881 -0.14570003 18.157853943936225 44.78886766477931 1.016860520552617 
12
Properties=species:S:1:pos:R:3:forces:R:3 energy=-259815.29263636968
H 2.21981405 -1.69655928 0.28233288 39.17076771791214 -46.92019482204705 7.233299679445453 
H -0.10032289 -2.66252723 0.18405967 5.765774985078122 52.80323327877632 3.2011428882961 
H -1.57629109 1.12832451 -0.55094016 32.30972691050462 -15.091714410147647 21.172604736851547 
H 2.61949785 0.57536824 0.03481726 24.9421946602319 13.553095000755512 -0.612535861594949 
C 1.6104087 0.24863072 -0.06460871 -20.949071540471802 -34.89754299456772 1.6268741407815561 
C 1.37364448 -1.13169907 0.08095026 -24.190920107832795 96.28011328093787 -7.820181488519359 
C -1.02264872 -0.72098834 0.02861076 -14.872064777695355 -58.37014251688502 25.15897697739364 
C 0.53263025 1.22296284 -0.17120621 12.970866353468264 65.69929685480722 21.298997844740075 
N 0.11199213 -1.59796819 0.15965713 -27.56164963563798 -47.37517419865016 -8.569238555561414 
N -0.71926592 0.55765169 -0.2497569 -27.19905876259256 61.62591736661669 -32.13988057618634 
O -2.15850066 -1.13551132 0.2472724 8.237937942471287 0.4390063671060902 -12.77195791694116 
O 0.61868577 2.49964615 -0.07060311 -8.62450255961479 -87.74589202088106 -17.778101868705146 
12
Properties=species:S:1:pos:R:3:forces:R:3 energy=-259812.10391745795
H 2.19674991 -1.66500818 -0.1322257 1.1522670542159683 -20.01048113809666 4.957270337330464 
H -0.15658483 -2.48118624 -0.03995361 3.1710550508820092 -39.99341802492408 -3.5641511703499034 
H -1.48549051 1.35290318 -0.07490385 27.520850276710412 -36.03283857796548 4.663267353617448 
H 2.70227453 0.35608651 0.28024455 -20.73355686600883 34.10541927875709 -9.19529396290807 
C 1.58566194 0.2906526 0.15756239 82.06182129173122 -28.638754608639477 11.580240968148596 
C 1.33999845 -1.0187331 0.02533958 -10.182138981130436 -20.76747846286641 5.946017412511495 
C -1.05924237 -0.77529533 0.09361974 43.84040648801269 72.0839103403427 -2.648750684361076 
C 0.55267992 1.21542165 -0.02354503 -8.391017953012406 72.45584548323492 -30.357429085739636 
N 0.07700077 -1.5243193 0.0539316 17.27655767124615 -5.069649412090878 -6.063107754289848 
N -0.70099446 0.6207414 0.05270237 -70.36702170973864 15.04660933500006 1.0712600610630583 
O -2.14984373 -1.24565438 0.10768839 -59.090592837000116 -14.256079362675994 1.6300130090917715 
O 0.67498341 2.40641594 -0.39315922 -6.258630671729054 -28.92308603589684 21.9806658875278 
12
Properties=species:S:1:pos:R:3:forces:R:3 energy=-259814.94962686297
H 2.14740076 -1.80716668 -0.39380891 12.264732450848145 -30.20525504247808 -6.70116722809072 
H -0.05522433 -2.5853042 0.14619878 -12.741273611540656 23.84820478134859 -11.7897162560215 
H -1.39550114 1.30356105 0.28657183 -10.598477193110693 17.64758091775358 0.1375848869258619 
H 2.63124528 0.41719619 -0.37552609 12.677949581833886 17.579079593357577 0.8111253122605306 
C 1.60029847 0.17668976 -0.16170488 45.84781297427396 0.2615257168901296 1.6436653668006918 
C 1.33971487 -1.13296226 -0.23247913 -52.18860207139212 18.276485853075087 14.453099972096991 
C -1.09174014 -0.72382849 0.19029708 23.31650989796003 27.102503283877297 -30.33373638122958 
C 0.61503599 1.18423996 0.06754482 15.581612659108487 40.28009619203256 -46.649958063748976 
N 0.0222424 -1.56293585 -0.08454513 5.002907846127954 -46.746160167792354 21.36344128951479 
N -0.61534651 0.66964579 0.21995108 -82.31594274200668 -81.9645258606829 24.895750793122755 
O -2.26882887 -1.06896562 0.16648853 29.357953887550476 8.459978190153425 14.471508658023618 
O 0.72926585 2.39156943 -0.16159523 13.794815134526175 5.460486542465096 17.69840046452449 
12
Properties=species:S:1:pos:R:3:forces:R:3 energy=-259821.22572459595
H 2.09096095 -1.90100395 0.18540841 19.31556391675585 -18.536057336880507 -0.464952131604585 
H -0.13363203 -2.39170018 0.36995662 -10.202369088184565 -45.207734047230815 5.970150056629817 
H -1.52746444 1.23634934 -0.32365318 -32.04300136832537 31.411201843829236 -4.543137752496788 
H 2.70684311 0.62942038 -0.13320117 22.311417465473365 10.53539388507637 -4.9078512452155305 
C 1.71692023 0.23371136 -0.14412338 -66.54183575241187 -30.509680207369215 8.304252612857455 
C 1.39409733 -1.10315253 0.04087474 -11.273284075323076 59.211129174739746 6.525192570603877 
C -1.04898229 -0.70095248 0.07739202 -25.75615764225682 14.549061354467932 -6.119722408515242 
C 0.53244298 1.16858197 -0.12816967 16.879013537032648 26.24635708976348 1.8044377984707751 
N 0.07704814 -1.44085478 0.24326328 43.30353905321909 -7.205972433427728 -5.272150886389025 
N -0.77776131 0.64022378 -0.10040772 44.34725011972872 -52.073405485825106 3.7400546785739537 
O -2.14601835 -1.23510217 0.09759035 -13.324007418593732 4.886201710368682 0.26145338180629013 
O 0.61423981 2.39056415 -0.11335249 12.983871252885768 6.693505638308967 -5.297726674720996 
12