12
Properties=species:S:1:pos:R:3:forces:R:3 energy=-259819.32072582317
H 2.09370963 -1.98669685 -0.11494916 19.0492356246272 8.294000004088991 4.515953990825697 
H 0.0274979 -2.58607953 -0.08573293 -17.853209402151474 31.669953925291484 9.861366087291573 
H -1.61332067 1.1464202 -0.1509296 1.621477469198711 17.551492652530655 4.639581764033675 
H 2.58921319 0.67068666 -0.13840591 28.98689862387479 10.063299553308424 0.11972523614378558 
C 1.6200416 0.26953384 0.04294458 8.152430758446723 -54.47008144703705 -3.20924560350717 
C 1.42730068 -1.13654936 0.05235804 -35.49085788281916 71.94690057662442 -7.341336277533404 
C -1.03738202 -0.71248648 0.06743731 3.9800707875007295 -24.17771243301633 12.872723060371673 
C 0.54959019 1.24094599 -0.05142537 -41.895383675368286 -3.5071665399579857 0.6416702988876144 
N 0.12251955 -1.55092762 0.10111386 2.0099524440482033 -34.3632606496556 -7.100884972282545 
N -0.76763987 0.65452646 0.14044464 13.462293125758105 -35.19131474317666 -10.81970633919699 
O -2.14917727 -1.22210531 0.0364745 2.2495357282929884 9.13172328242362 -5.326531453762721 
O 0.59744529 2.43463346 -0.30076037 15.727552841128333 3.052164632754994 1.1466853945498616 
12
Properties=species:S:1:pos:R:3:forces:R:3 energy=-259811.13148218498
H 2.09092729 -1.86797797 -0.09299269 18.485943353632297 -30.70232276548635 5.3906476119285855 
H -0.34339231 -2.61806378 -0.35226283 24.119983107007183 57.51428447728551 22.933885764154216 
H -1.462196 1.53049508 -0.01005321 46.54089335881366 -73.0440767566598 0.8299312482377531 
H 2.6326274 0.41303547 0.24921313 14.392573294239028 10.47151726276191 -9.171764901702442 
C 1.61863075 0.16839577 -0.04079329 6.222954059722577 -12.773664313427146 10.788406592673326 
C 1.30575475 -1.15721955 -0.03591822 -41.05582000276942 19.87656399566778 -16.06379121305629 
C -1.06723827 -0.73604678 0.04574221 -39.29879370138177 68.33284649917259 25.213374146261984 
C 0.61301658 1.20915515 -0.11863279 -14.699089061635231 17.187866557711597 18.15250826265838 
N -0.0262597 -1.59013467 -0.08457207 30.66696632516245 -71.14060748512857 -28.915947393196618 
N -0.69475961 0.66740251 -0.03758421 -41.477022452682625 39.24863465693379 -8.54154370501926 
O -2.20114309 -1.07796191 0.34193478 -2.68089592129093 -4.8765443837655855 -14.419219878976033 
O 0.79424444 2.4331059 -0.10982335 -1.217692358817223 -20.094496559244668 -6.196485348142553 
12
Properties=species:S:1:pos:R:3:forces:R:3 energy=-259814.34672072326
H 2.06577281 -1.75156355 0.13131324 34.8085008780034 -30.048000941853104 0.2778011107540163 
H -0.07155636 -2.55726029 0.01625347 5.697105274093508 4.148412314910935 3.6444549716222103 
H -1.5540009 1.12561684 0.04347223 16.00154035139665 11.884104053863666 0.897039232904061 
H 2.69083623 0.60519622 0.14109539 -9.261168693685967 -11.902863742820076 -10.64282334278849 
C 1.64141533 0.25159703 -0.00908342 54.13332487131176 48.72090439914747 4.309746825757084 
C 1.29605644 -1.04095003 0.03251806 46.71724985067749 3.3786496265750845 9.712878761663736 
C -1.08664126 -0.77389339 0.06909738 78.69244597156118 39.719828950527415 13.022515974971757 
C 0.66765362 1.26619326 -0.10616132 -92.22390092403823 16.687418058899613 2.5816308414843023 
N 0.10363037 -1.54766888 0.11197229 -82.9553101764219 -45.701462498172006 -11.796788492743117 
N -0.6819623 0.57115304 0.11561696 -30.333802787208185 3.517932609239605 -13.962537663350084 
O -2.18477834 -1.2378401 0.08361252 -44.81365725375742 -14.73808597257205 -3.5353665502659704 
O 0.60326579 2.47815642 -0.29366844 23.537672638067722 -25.666835671925508 5.491448329990494 
12
Properties=species:S:1:pos:R:3:forces:R:3 energy=-259817.44375416994
H 2.12518048 -1.88258984 0.0939795 15.541308973378372 -5.911609629024825 -1.384370179299121 
H -0.05351054 -2.5354083 0.10838526 -7.222908329614543 -8.660575235850814 7.092414652547044 
H -1.41489606 1.29250519 -0.49392315 -24.76438316594395 6.334399893319356 5.164115474122121 
H 2.75196881 0.60023139 -0.27472226 -5.6752826093738635 -0.8382414821319694 5.30438861736051 
C 1.71508464 0.24637719 -0.14015499 2.9681658131016406 -8.392988787591772 9.26376208431477 
C 1.40575024 -1.0739714 0.05504589 -24.805679383890027 -1.9402154941216962 -3.334612976190437 
C -1.02661636 -0.7116012 0.06903061 -55.64517555639909 -0.15266971645901328 -17.065090204015043 
C 0.61009965 1.17466843 -0.07776567 -72.38856199705373 21.531146031023 -27.693990821896 
N 0.10084804 -1.54097748 0.22049147 26.282713177229635 23.75433400148271 -5.504474574186836 
N -0.74783578 0.56108131 -0.33430092 97.77899819870224 -12.501124690656667 19.147196301282623 
O -2.18846371 -1.09881761 0.18123253 12.333844473083122 -16.171531355882603 5.493579250411142 
O 0.51005684 2.38942253 0.02440551 35.596960406780184 2.9490752800732465 3.5170811897281826 
12
Properties=species:S:1:pos:R:3:forces:R:3 energy=-259816.33237493408
H 2.16055183 -1.83689315 0.09742503 6.661563176778072 4.152069387018493 -2.0475512719711366 
H -0.07357474 -2.54521526 -0.03824713 -17.059506172706843 -100.02471321158325 2.6862558324213315 
H -1.48416661 1.13087033 -0.45547636 -2.946422598392116 9.896468761911521 11.003095935687906 
H 2.53401308 0.68282944 0.32659289 36.901633925182836 5.196087581179178 2.9784326517226627 
C 1.57277098 0.25329771 0.21579033 4.403596260844121 11.072689401267782 -18.393788456820776 
C 1.37088142 -1.07517575 0.02480391 0.6684864560342763 -20.47145484009007 18.968470538967786 
C -1.00355789 -0.74977292 0.08742947 -2.604556319777237 -3.6174348532555416 -4.1593337267496535 
C 0.54798933 1.23377163 -0.08442262 -27.029982026133496 37.32694880248546 -3.0253555905346117 
N 0.11436281 -1.62165239 -0.06451809 2.3988649868638725 134.65724061792085 0.44374253636600736 
N -0.70469755 0.63654921 -0.01190666 -24.05206402074503 -42.55564171916056 -13.114183499333144 
O -2.13501908 -1.17201216 0.25056348 1.277391333584692 -0.36520086516887285 -4.487650814086662 
O 0.58647222 2.44988948 -0.36225658 21.380994998466857 -35.267056690882896 9.147867050151339 
12
Properties=species:S:1:pos:R:3:forces:R:3 energy=-259818.11657558038
H 2.10548751 -1.81351263 0.05495094 61.35012385089446 -61.28610611587547 4.120890594241577 
H -0.1012653 -2.56692649 0.0746658 -9.207560095813575 -21.926922106056097 5.182208731650367 
H -1.42462948 1.34495022 -0.02060768 -27.26738458547368 2.802833899507576 -0.10045090085317614 
H 2.61510589 0.64268932 -0.06596509 6.514897272277737 -7.946320830703928 4.948269955587157 
C 1.60990582 0.20404462 -0.03700527 25.648534895714118 52.71057203637792 -1.642793788331478 
C 1.37815567 -1.10871074 0.03597 -105.29815308544988 34.33467761914957 -19.101023987193138 
C -1.08747812 -0.76836451 0.00346054 22.801322829360487 46.81497217730256 13.800441855392052 
C 0.58311846 1.25521382 -0.09314825 -31.112300233372924 -45.655887837889985 -8.228523709182735 
N 0.04578411 -1.58725777 -0.05921053 34.12299314666695 25.340420641547166 -0.3598943159855655 
N -0.75174671 0.63218138 -0.2544703 36.398484126026815 -18.990433130570924 12.956427796405482 
O -2.17595458 -1.16071978 0.35917666 -12.035893891106143 -3.246368917190437 -10.748254692037175 
O 0.72827782 2.46125577 -0.01929056 -1.9150642297243894 -2.9514362497769255 -0.8272963538723209 
12
Properties=species:S:1:pos:R:3:forces:R:3 energy=-259817.6634471507
H 2.06134422 -1.87464898 0.00932686 36.92357042872295 -37.276512275912594 -1.872290478754316 
H -0.26960245 -2.51287317 0.29744483 20.623873162487218 18.71509734177268 -10.067838876274612 
H -1.55697727 1.18622704 0.14825697 15.933794395007295 12.417926300209734 -2.9873761140557367 
H 2.63963397 0.54197983 -0.33604196 35.8232008326092 8.88106324378302 -3.304054367820866 
C 1.64707364 0.2106698 -0.20008651 -27.61000504627416 -34.42300942890702 20.822909667687348 
C 1.32433046 -1.13655353 -0.03980447 -10.020838859094637 62.114416346742594 -6.999531661612945 
C -1.12535722 -0.67159887 0.08416868 108.39322783859528 -38.22679724544881 -2.3380015358286923 
C 0.63657535 1.20975826 -0.01537815 -31.157342460005044 18.083392682960262 -34.741001572391724 
N 0.05644839 -1.54007225 0.06127498 -58.64835985082637 -35.40979278443496 15.295239248008965 
N -0.71743177 0.58588319 0.06772784 -5.851577438543276 76.45227111460966 6.870503659358982 
O -2.20542102 -1.14160286 0.13150539 -80.07661100381925 -24.652817564421472 4.1449331159603595 
O 0.73935605 2.43556183 -0.12361257 -4.332931998859212 -26.67523891677414 15.176510101544283 
12
Properties=species:S:1:pos:R:3:forces:R:3 energy=-259814.32769770268
H 2.21797825 -1.74293835 -0.03821241 9.879140358958297 0.44739960847356486 3.889276027429602 
H 0.02729796 -2.60454541 -0.20105904 2.2963815887369114 59.88099711229326 4.67662681352787 
H -1.66659684 1.17356731 -0.19892568 20.463426831604938 -16.90855826840742 11.564819365438225 
H 2.5509806 0.8850217 0.26557752 -8.34607770699029 -18.952003042094354 -4.4372036151243694 
C 1.59930829 0.30925821 0.12400269 25.800548853134387 97.86304089373432 29.5101397890225 
C 1.43838908 -0.98119786 0.04018678 -36.8206364185983 -85.8193881755206 -28.956948341702095 
C -1.00201169 -0.76151853 0.11840285 -15.103883305727335 -48.7663260885145 -16.304949267650894 
C 0.46626962 1.23017201 0.01531731 -15.778302424457495 26.77460241972763 -59.098920858210036 
N 0.14956951 -1.51524588 -0.20237776 18.79361766819098 -45.625841504212524 23.014480091582925 
N -0.82587279 0.56435827 -0.01173182 23.1076808825575 76.72380160366953 1.7331059192366594 
O -2.07745164 -1.29070018 0.32984471 -11.738071377802191 -7.254893480703111 2.1961737811982776 
O 0.59420411 2.41997576 -0.35528721 -12.553823763786356 -38.36282989262474 32.21339792360925 
12
Properties=species:S:1:pos:R:3:forces:R:3 energy=-259808.85115364287
H 2.0921544 -1.97404975 -0.51615229 8.139952363573888 -11.648943882122513 1.8464443232237313 
H -0.08538091 -2.5987779 0.2293135 -12.333197014791706 16.013772095491802 -8.193281107679296 
H -1.51241002 1.13768604 0.26357654 -6.284769725058136 31.987429050799893 4.612986169601671 
H 2.65596358 0.79406258 -0.433056 -32.661386885142946 -39.48736533584611 1.4510429676413454 
C 1.6688472 0.1817806 -0.26912016 18.868710971784747 11.160414070649392 -14.352268422687873 
C 1.39571246 -1.17729603 -0.29046152 -71.71532988519117 41.03139327503155 26.23869905744487 
C -1.12658969 -0.67816293 0.12549969 68.32964359652586 -57.838906546241475 11.632953085309797 
C 0.57429841 1.14907523 -0.08030884 24.803333829859948 65.28453934228202 25.218649864098083 
N 0.00547778 -1.58182522 0.04533391 49.02887991225198 -7.516618415529062 -21.165533685950972 
N -0.6768494 0.57426361 0.26035424 16.079738134490285 53.96480428492351 -18.904212082276338 
O -2.2844895 -0.96856901 0.21115104 -36.732907005932496 -24.9872440017903 -2.122529550923391 
O 0.78788052 2.41085869 -0.06398723 -25.522667106549207 -77.96327393764871 -6.262950617801632 
12
Properties=species:S:1:pos:R:3:forces:R:3 energy=-259820.24455741004
H 1.99998688 -1.99452113 -0.0284461 29.614409033645565 2.6460268534171525 11.109613497015227 
H -0.05800121 -2.57449803 0.17403782 -4.09418590427329 32.16430848974525 0.6879694958290784 
H -1.5617386 1.28483036 -0.14629628 8.205806935393994 -7.816784111220995 1.731192004067529 
H 2.71476701 0.6838462 0.07002713 -5.488664022173196 1.3163918019846461 -8.518841161083078 
C 1.69387862 0.28043435 -0.02647519 -18.862034799292676 -57.22612996297407 24.94876055136664 
C 1.41759538 -1.09541878 0.15494495 -33.1750608460871 44.56819585458489 -30.94675487199047 
C -1.04362198 -0.75924153 0.07576045 -15.636790098225463 46.10632196242167 -10.898282399204474 
C 0.5284183 1.18573944 -0.08657923 5.309753271775098 65.64915796931703 -8.61646150709814 
N 0.08447037 -1.52787167 0.17199775 29.43849485303209 -41.16281782162059 5.810891918436176 
N -0.76704927 0.63257297 -0.03164272 18.462796126803656 -30.618677320504872 4.954676946701661 
O -2.1738625 -1.1905066 0.02041909 -15.966875244742877 -14.774682781710647 3.6238869055698157 
O 0.62748962 2.42976689 -0.2361006 2.1923506941442032 -40.851309747618416 6.113349806211088 
12
Properties=species:S:1:pos:R:3:forces:R:3 energy=-259812.68322605995
H 2.20928789 -1.60596884 0.47141894 -11.634249187713674 -9.71043834194994 -10.228085989221075 
H -0.0292277 -2.55771532 0.40472314 0.7214582680046722 43.854313797246625 -9.520382059535326 
H -1.51286878 1.26475303 0.2611151 -18.823180186881448 2.3906946798531488 -2.035702548074018 
H 2.56845631 0.79877233 -0.10854004 15.473198969927733 -10.551032493038262 -8.820024291232947 
C 1.63333475 0.26008742 -0.25555098 -30.08871492166532 33.107055194888545 3.8094963590598705 
C 1.35191738 -1.00997582 0.08610963 25.425047946355186 -16.547935858299272 22.841222150113726 
C -1.08560377 -0.77688578 0.11558963 40.8304760576516 31.729131138798472 -4.549861357830722 
C 0.52982206 1.2269088 -0.21391549 -2.817963790240496 7.400815875407261 30.520396472166883 
N 0.08409735 -1.50120633 0.24316924 24.08408948974919 -74.12810455293106 6.8340503345670145 
N -0.78570934 0.56877119 0.17727657 48.93270982537685 52.72817080652976 -25.21230097821486 
O -2.15490883 -1.2763798 -0.02753278 -59.202377815416206 -23.468585518074725 2.6598855439881723 
O 0.74155493 2.45011274 -0.20446294 -32.900494655148066 -36.80408472843057 -6.298696007428808 
12
Properties=species:S:1:pos:R:3:forces:R:3 energy=-259812.22124531958
H 2.12485309 -2.06755402 -0.03676614 -22.412844297047858 48.13439968116637 5.059112206271243 
H -0.04454005 -2.45290073 -0.04303036 -20.876920258894522 -53.8495899120408 -0.715733123991933 
H -1.56544111 1.20494815 -0.23818175 -26.2757832390336 18.898903161450935 -3.0774072053728854 
H 2.68792997 0.65390397 -0.07346196 -10.94755682115173 -3.926369695586706 9.931380519342973 
C 1.66869263 0.2467772 0.12589596 -6.507902113924145 -13.636473636001519 -26.771112548387634 
C 1.40442067 -1.13475533 0.05185985 4.177788659697097 28.463924268462556 10.906846398802651 
C -1.05487936 -0.74971751 0.02424079 20.208386370018385 36.63060029514148 7.592614128939255 
C 0.52662705 1.2479667 -0.04531809 5.3226384032669 21.070075091703767 -24.65948306452412 
N 0.07234357 -1.50757485 0.16973577 60.37622325521623 0.5648551831342554 -7.736863330146724 
N -0.78807666 0.58458203 -0.21737586 66.7040382842641 14.050619264866706 16.02973087513626 
O -2.14022309 -1.22585622 0.15956223 -59.24883709819896 -20.81347053215682 -3.360246869753689 
O 0.65467744 2.49415334 -0.21093355 -10.519229958390863 -75.58747317014021 16.801160827863562 
12
Properties=species:S:1:pos:R:3:forces:R:3 energy=-259814.7391934716
H 1.98739039 -1.84086743 0.35858824 21.70588506297934 -31.608220081608135 0.0037377079387228337 
H -0.22145564 -2.48076446 -0.07066122 -2.916874309554205 -19.926353063949236 7.561074846564189 
H -1.39943669 1.27369739 0.28053474 7.584085703972475 -1.8186261472927354 -16.777689871889212 
H 2.69665641 0.61497859 0.03798146 -20.723597155038863 -22.668413634821167 -10.686154429650443 
C 1.67553189 0.15852044 -0.17840522 -5.872096885932763 37.397428076387115 14.399213892099704 
C 1.27679128 -1.13449261 0.00838774 38.79005157017022 51.772218798212094 -0.931966406009119 
C -1.1070545 -0.72705242 0.02745143 -5.204485565830839 47.61430687089725 15.136290609108475 
C 0.58666588 1.21659048 -0.14499545 53.432291185012836 -28.1085621605169 -0.41553659695278994 
N -0.00807642 -1.50195183 0.02927155 -8.10657150111353 -55.372171091778355 -13.38997464341326 
N -0.66704396 0.64328318 -0.11348607 -81.32332633275078 0.01519748253257355 21.711673055507543 
O -2.2383241 -1.13926004 0.26798802 12.87125264227395 17.330165083297494 -14.540542416069522 
O 0.8107951 2.40943632 -0.01671587 -10.236615600008903 5.373031054461051 -2.070126933055339 
12
Properties=species:S:1:pos:R:3:forces:R:3 energy=-259808.54186055216
H 2.18966263 -1.90736528 0.29037252 -24.443147801896934 12.832407516431097 -7.737790642205125 
H -0.19857961 -2.59261138 -0.06146273 5.623863037153401 48.290796433174684 4.989320708576594 
H -1.50672312 1.17025554 0.76453754 -4.943844471441435 13.052532663123056 -10.487433352848694 
H 2.6500214 0.65337422 -0.07219578 -36.70670154662481 -29.858381041583623 -3.8289853279599053 
C 1.59650039 0.13737906 -0.11109161 51.22586242340401 104.52363406889631 0.23539852177151283 
C 1.3581496 -1.15489772 0.0985064 11.27078080709381 -23.523551881045417 -1.1181248946437259 
C -1.00242552 -0.72199565 0.10061563 -41.31225498990672 58.16191352693204 13.472078521034227 
C 0.52924694 1.24938241 -0.12372078 -19.36203980103325 -29.293636139806694 24.175876782036276 
N 0.03644733 -1.54478877 0.06042074 50.27273741246131 -100.89714310030827 0.7861341337045078 
N -0.69864427 0.65890237 0.41862902 31.614844077974155 -32.051590270165526 -27.47042916581114 
O -2.13095798 -1.12754318 -0.07940482 -28.372927918813517 -1.3941579462173377 2.8516541519940035 
O 0.65044078 2.43965649 -0.37134501 5.132826399987875 -19.84282264360927 4.132299378530426 
12
Properties=species:S:1:pos:R:3:forces:R:3 energy=-259806.55928642268
H 2.18131358 -1.78568106 0.00768859 15.886654450943828 -25.11213230277076 1.3094393331887286 
H -0.11572499 -2.66258249 -0.08970596 8.9661174441678 32.53238497095201 8.401161466244588 
H -1.60829919 1.13591702 0.44857114 8.710095122754705 14.64632951163217 -3.3606986675724237 
H 2.75113671 0.56463893 -0.42924693 -5.682680946883285 -1.431563485309683 6.904043421839577 
C 1.73152454 0.24731675 -0.15227725 -59.088986049482045 -29.5559611000822 15.367635994542884 
C 1.36631605 -1.09348343 0.061175 -3.524395333943298 16.910195887272703 -24.389840402570364 
C -1.06960103 -0.67572876 0.0235357 -22.62081596383373 -54.48180091644009 45.860553435598085 
C 0.61587293 1.2152721 -0.08721002 -23.224734463883408 -37.87883584665466 27.239185760986736 
N 0.08940107 -1.64911837 0.14208129 -17.35386371691278 44.86135453371276 -17.396793996260996 
N -0.74030605 0.58643013 0.44702282 56.03170697055329 -4.70833685413364 -38.06375515229562 
O -2.24483884 -1.05009445 -0.0960227 38.60984471736824 -1.197470552510421 -11.71060183325888 
O 0.6276772 2.38372554 -0.29968958 3.2910577691506875 45.415836154331814 -10.160330546263351 
12
Properties=species:S:1:pos:R:3:forces:R:3 energy=-259819.69192991787
H 2.20196608 -1.66575124 0.27422835 32.4657050676835 -36.958361232407654 2.1454929754898147 
H -0.11486657 -2.58625572 0.26613211 13.292782378796002 30.6091302752591 -5.05059445369388 
H -1.59188246 1.1435322 0.33463631 7.090255272421278 10.10374909502726 -10.526303380933527 
H 2.67686873 0.69921311 -0.23431383 -2.232507338064543 -1.9394885858201614 -1.8189712212172813 
C 1.66126736 0.27998014 -0.2275112 -35.11257148240161 13.233198428670047 8.184510775219016 
C 1.40009024 -1.04083939 0.01501113 -37.14894520518798 20.37773821696025 0.5123956458559689 
C -1.0444572 -0.75759411 0.10823966 -20.22158218662438 -42.957871032328974 -7.917829108418491 
C 0.5192099 1.23637046 -0.14789813 8.192811522544861 79.3129137901365 6.591562974579231 
N 0.11363551 -1.56116268 0.13292732 7.803304883384871 -8.64139220878079 0.8383790373733689 
N -0.77090549 0.59761882 0.03957563 8.531974129173609 5.517803202750048 4.284768691232573 
O -2.16010886 -1.31543687 0.12917822 31.154754998481472 33.064907557431056 5.425051837952115 
O 0.63188577 2.52252779 -0.13138373 -13.815982040207079 -101.72232632107564 -2.668464959259955 
12
Properties=species:S:1:pos:R:3:forces:R:3 energy=-259805.2635956808
H 2.10500988 -1.75277668 -0.08272522 35.942400750029364 -26.84594734299326 0.9235103161261771 
H -0.07503799 -2.3712481 0.57623646 -11.38966648193664 -122.00992316536141 32.99649279797145 
H -1.67665491 1.09614684 -0.2825514 -11.02000811545379 17.80634931185499 -1.7182784128706092 
H 2.57355205 0.69864265 -0.25335365 47.23820356702641 24.7736800029489 -9.52792625303347 
C 1.61136266 0.31371826 -0.20019317 -79.25893758773967 -37.570316041689786 29.77658191997162 
C 1.37374397 -0.99901416 0.0062677 2.488052959416925 -1.2475833499375866 2.3228443712117013 
C -1.02515787 -0.77229594 0.15190864 34.742749472614335 39.34908081450278 -47.89874265040671 
C 0.43061762 1.20233339 -0.03479583 62.67230720287046 47.20754297804684 -54.46861577222352 
N 0.14395846 -1.51490037 0.28778463 -6.692862923301737 126.41185809091934 -29.9227497796324 
N -0.80654781 0.58596165 -0.29773849 19.235321778177966 -35.2448047589444 43.52214634897147 
O -2.11216863 -1.26226775 0.14252988 -51.08998986206936 -21.551406969424335 17.936736265028305 
O 0.71331007 2.41388495 -0.07360201 -42.86757075963427 -11.078529569922035 16.058000848885992 
12
Properties=species:S:1:pos:R:3:forces:R:3 energy=-259810.95112621755
H 2.29377388 -1.70634481 0.13461564 1.3048703646963749 -12.366515028736597 5.779302831577153 
H 0.09416878 -2.68920772 0.16045987 -6.163960648477805 49.34119790202895 -7.313854874779628 
H -1.51392129 1.29242381 0.50276841 -13.98742093219087 -7.043220866430954 -8.746608924420046 
H 2.56422124 0.89349918 -0.04732403 26.92183870415135 -3.1749137125674802 -0.2365938293864343 
C 1.6579532 0.32306087 -0.01908583 -63.022044961592336 -40.10527889588715 -6.159565995679293 
C 1.42576003 -1.0458575 0.11766275 23.28846167274601 43.15246545188873 -16.47396789887868 
C -1.01109932 -0.80267629 0.0511301 -30.81284484448787 48.01120236099829 34.36972456018034 
C 0.47600027 1.21730986 -0.17373317 -6.488620663707255 -53.151589555978966 53.12915500759931 
N 0.17122739 -1.61888222 0.05417649 -17.226079640936643 -13.495958585269635 5.54731354531447 
N -0.78160536 0.62892283 0.25437292 70.6389850234805 -47.444751062735385 -33.7720992124247 
O -2.18239536 -1.15124834 0.05522345 17.470702664629265 -30.328153535742434 -6.862603719546871 
O 0.58696645 2.38846652 -0.35470891 -1.9238855524896683 66.60551671425365 -19.260201489555612 
12
Properties=species:S:1:pos:R:3:forces:R:3 energy=-259814.75268938
H 1.94395068 -1.87652494 -0.4374074 42.94984302384384 -33.16169071378725 1.3222082542179696 
H -0.27512039 -2.49201257 0.21809154 8.506009391538369 -15.575379983687823 -1.7534225912271852 
H -1.33156952 1.41803238 -0.16297844 -1.5157994691723464 -31.27071288116037 -3.399523634457489 
H 2.66800847 0.46280747 -0.2056301 8.290953629820407 10.103510744996903 -0.8105086853163249 
C 1.62943154 0.18706839 -0.06345055 23.178991417012778 -6.562305211897725 -1.5917762094457952 
C 1.3223946 -1.1212847 -0.05760058 -22.359213168575575 1.4959156218638108 -10.872210937675046 
C -1.06282066 -0.65301643 0.12897818 9.031339973370095 -30.45205997689635 -28.65653955269562 
C 0.57292846 1.16335003 -0.0637214 31.79479953671427 -67.31485707698364 1.0351672258692424 
N 0.04345663 -1.54958018 0.0327548 -49.00757545132968 13.916491046291535 18.3550880011456 
N -0.67091877 0.59454887 -0.21972214 -42.3179569344113 65.63608192063674 10.821710376765658 
O -2.20861502 -1.02264558 0.2594365 -14.640245063842327 -7.9044245873083 13.615541522887833 
O 0.72048978 2.33367421 -0.01695263 6.088853115031475 101.08942991211146 1.9342674157522055 
12
Properties=species:S:1:pos:R:3:forces:R:3 energy=-259816.88230390835
H 2.04292244 -1.87662684 0.11869505 36.42211398202139 -19.95745359253708 1.1846980740180402 
H -0.00772378 -2.53433858 0.44726114 -19.494228016376265 -18.887119657711374 3.2095610319055523 
H -1.60342707 1.12476548 -0.0560333 -1.0247533454384479 12.09096816379207 -5.8657705306494226 
H 2.64001826 0.43051905 -0.11413755 1.0671559344209516 17.742706296286702 2.603293420362662 
C 1.57053856 0.21368863 -0.07612502 20.092078670130753 -22.092582492080055 -0.30431369771276157 
C 1.31376527 -1.1185504 0.01752643 2.8489670815025225 29.413458613276298 -6.279337478843894 
C -0.98923115 -0.74700969 0.03579564 -25.418025514117527 28.94879700782812 -18.160224400208275 
C 0.51716656 1.21725692 -0.07645907 11.390674429826205 39.71729722259303 -12.907673949897662 
N 0.06809055 -1.63399829 0.01089827 -7.435429991756029 21.07780308746413 -0.5748433538093387 
N -0.75408294 0.62696545 -0.33185449 29.009826473809817 -30.820610786521723 25.797584300518018 
O -2.12867397 -1.04929279 0.28232926 -30.64624765983714 -24.523912887556346 12.904442587545816 
O 0.72490407 2.43708502 0.0481141 -16.81213204418623 -32.70934860319167 -1.6074160032287315 
12
Properties=species:S:1:pos:R:3:forces:R:3 energy=-259808.3332060529
H 2.27973578 -1.68198124 -0.14326693 -5.196100625210691 -4.99083737369513 1.0496532157738865 
H 0.05462854 -2.48712956 0.23852177 -9.458677861378142 -114.3131085694198 -6.930189590094939 
H -1.47255739 1.12631772 0.31813219 -48.73953483360981 23.14642758525349 -0.9043379614455709 
H 2.58442283 0.60872375 -0.25347848 40.60405420120246 27.417052988863873 -12.44446260358941 
C 1.59297389 0.29036096 -0.15688427 -31.71718162011239 80.80827207610844 2.4722554514347976 
C 1.42468052 -0.99188422 -0.06434709 -26.10887299762658 -85.44593636750984 25.713466898760007 
C -1.00790357 -0.83235584 0.20273786 48.49918195150582 30.63224904238263 -25.759413906850646 
C 0.43054988 1.25490527 -0.04802309 67.15969120722166 -0.41338196011121026 -25.968315257337018 
N 0.18182005 -1.56000625 0.261513 11.564747030354386 87.75887557551971 -3.98032811066783 
N -0.69942195 0.52183882 0.28901168 6.956463827023327 30.215282345247697 10.010887448872 
O -2.11042074 -1.19509361 -0.10223717 -31.725618736858596 -30.8204803462066 13.73717355927447 
O 0.51457826 2.46674273 -0.33998078 -21.838152728332478 -43.99441618225431 23.003612041691298 
12
Properties=species:S:1:pos:R:3:forces:R:3 energy=-259819.71578102023
H 2.20339772 -1.85135532 -0.12056748 -22.514741899577817 -7.763373545463376 6.591662583547142 
H -0.30895876 -2.58558268 -0.10647928 6.755088882719402 0.09730254597458822 0.43514177631538664 
H -1.54464253 1.13526008 0.06994049 -4.933786337324606 34.91442315716535 -0.5808080336734808 
H 2.58428075 0.48435386 0.35626366 14.837323778494603 1.2624428734718938 -11.696311503826916 
C 1.61292974 0.14288594 0.01112904 -9.276051933641204 24.415896448426185 3.7321381372671922 
C 1.3112107 -1.17796648 -0.06715138 10.734429204455456 -4.526015682405665 -3.3791524146988214 
C -1.0639024 -0.67928463 0.04241572 -0.08080303193290374 -31.89431719640381 20.041227106191588 
C 0.5847412 1.20491068 -0.10205738 32.82067704050485 34.18151578695624 14.18902473995678 
N -0.00318867 -1.60910495 -0.1309501 -3.833822292008779 12.923375406375017 -5.006728561539934 
N -0.66951909 0.65205279 -0.06753431 -46.52414363653115 -39.074877484804 -3.255222257123973 
O -2.20454202 -1.03853414 0.36778175 25.68599972585879 11.774568577972879 -19.0629970778724 
O 0.77323997 2.43633641 -0.11985632 -3.670167129374535 -36.310942073086366 -2.0079756803636064 
12
Properties=species:S:1:pos:R:3:forces:R:3 energy=-259820.98217851546
H 2.20782399 -1.79749697 -0.05653768 -19.189862142537457 6.250887260295087 11.676320932624192 
H -0.09762364 -2.3866932 0.67074534 -5.199690105518594 -24.434650208277365 -2.140558774115124 
H -1.55710364 1.29262081 0.11804571 14.295262447517116 -10.476329324568807 -9.437251260888047 
H 2.7125903 0.60225352 -0.1190578 -8.844308720445229 3.91308019911803 -2.5590765251789382 
C 1.66525784 0.26623037 -0.02412278 -8.769560490776005 9.82622072311395 0.8308241714858046 
C 1.37646523 -1.04416448 0.0769637 -3.222665540290967 -34.90776240034688 -2.2158904277392497 
C -1.09223977 -0.74114465 0.0137216 -1.3877983879446947 -13.515727407936653 25.891855887897623 
C 0.54804567 1.2204531 -0.05014105 18.717812871969276 42.72971550550978 -20.909351278696597 
N 0.05786544 -1.52461269 0.18349966 38.23874676413488 20.013054369767673 -13.066171976800463 
N -0.757222 0.62569119 0.02906633 -17.84885150980541 13.153940521560795 -1.079097152359701 
O -2.19687064 -1.28906579 0.0143897 15.369494176122826 30.81499948132945 -3.336957344399464 
O 0.72855845 2.44444514 -0.25155898 -22.158578176604696 -43.36743109120715 16.34535374816996 
12
Properties=species:S:1:pos:R:3:forces:R:3 energy=-259810.49925324606
H 2.00864354 -1.89839633 0.09754737 49.18386197975177 -16.96017112945847 -0.39600138103193977 
H -0.36702452 -2.46063254 0.1837976 31.613316740466207 -15.319355290632634 4.009033280741645 
H -1.62050782 1.20439014 -0.46839012 -13.149545868762285 6.082678544842094 2.9698200334615765 
H 2.58151659 0.71924754 -0.05003512 -14.586061342762356 -7.139859352619475 7.4633074587393535 
C 1.56087679 0.27400079 0.06966068 38.42053313057086 11.446352285424828 4.852168646332722 
C 1.38170728 -1.05135453 0.10220666 -41.52592927010544 -23.32338054510374 -0.5987566210340484 
C -1.00817554 -0.7443158 0.05861416 -43.506546873104114 38.98112765868487 -14.925240550885757 
C 0.47348313 1.25430076 -0.02525032 -3.1944702732671684 -80.24029936944281 -30.300408880716322 
N 0.09927658 -1.54812046 0.08907082 -33.20494472228118 16.950799585727594 4.306711123877917 
N -0.81535015 0.63860756 -0.23822529 43.91224589865473 -20.89425340513193 25.875123952930817 
O -2.12635693 -1.23353018 0.19642834 -0.9160242278593125 2.2250769833868658 -2.1031781372647558 
O 0.78174193 2.38391989 -0.20510154 -13.046435171301699 88.19128166268072 -1.1525777393301642 
12
Properties=species:S:1:pos:R:3:forces:R:3 energy=-259800.9642681192
H 2.05387803 -1.94027794 -0.04453728 -6.648038887742181 28.122226376436284 -1.2975562204812598 
H -0.0357615 -2.60670671 -0.33721504 -9.802484143225175 1.0804098562582312 8.423096783963654 
H -1.41273409 1.27460974 0.32611191 34.37375516591755 -16.009224471778285 -23.665436555086064 
H 2.59775545 0.6580128 0.00708005 13.121094464392431 -1.249857754704868 -9.268308522207239 
C 1.63692142 0.23760965 -0.27476614 46.739663054278324 -54.84348819384804 17.85520039568863 
C 1.31681397 -1.07039829 -0.12171299 26.037024100416172 -68.78421030740476 -20.68624023460942 
C -1.12661944 -0.70377503 0.0242723 61.495283762665686 -2.1929554628779435 21.890129636444815 
C 0.5819312 1.08023999 -0.11921247 1.1718627470101926 188.62915745748157 16.383895303824897 
N 0.04816218 -1.60093586 -0.18146934 -35.671214149073 33.87818987817526 0.8569157919730249 
N -0.66475541 0.62326705 -0.09860034 -121.34470364631038 -30.09146958395646 19.636113876237964 
O -2.19021209 -0.98802978 0.52364422 -8.15891957121344 -15.286666947663463 -19.153070858747224 
O 0.71980815 2.35120947 0.09338938 -1.3133240829372235 -63.25211203193856 -10.974739397001777 
12