12
Properties=species:S:1:pos:R:3:forces:R:3 energy=-259809.1422090009
H 2.06869688 -1.86738741 -0.52652627 11.235512117527346 -25.697829476619166 2.101267779558765 
H -0.25176596 -2.51281216 0.17333465 14.785479682339478 37.52854668114614 -24.46614917273685 
H -1.66466105 1.24295826 0.41152888 49.492837139998514 -4.759586853944446 -4.123897836415625 
H 2.68455669 0.62663021 -0.18127465 1.6615285750459077 -16.75164449842281 -5.87920706892787 
C 1.69340732 0.14775686 -0.08843951 13.138222463588788 21.91143765483026 -0.9820293989523298 
C 1.33097918 -1.15543874 -0.21067323 -11.181192027027025 20.850521510756245 4.264891958850316 
C -1.11641374 -0.64793915 0.16274093 6.511705042020427 -7.64243521438897 -12.465786037648455 
C 0.6995974 1.15442395 -0.00679083 -91.87766133740365 92.02143858183462 6.397614827489844 
N 0.02119075 -1.50860104 -0.11270505 -33.32406281804913 -53.710325902513034 26.992323907158237 
N -0.75285108 0.66542934 0.36727663 6.457229608963007 -10.731137365230238 -14.16467864805008 
O -2.25481972 -1.11372074 0.12051587 17.424967918505956 7.708344333977218 9.27016077468195 
O 0.75919795 2.38630488 -0.22828436 15.67543244866936 -60.72733182306792 13.055488914992102 
12
Properties=species:S:1:pos:R:3:forces:R:3 energy=-259814.26419237655
H 2.05105854 -1.86315407 -0.30446137 5.266693737932806 -7.22781288546307 3.246895421735105 
H -0.0299501 -2.55609807 0.22252647 -26.47791592298627 -15.311815840418678 0.899961095962758 
H -1.5903576 1.28436149 -0.09144583 20.639001867399095 -1.7741780170049346 -0.2935156112628853 
H 2.54561576 0.56255398 -0.13443224 19.96849358648045 -4.057851161585979 3.992719940604268 
C 1.55410572 0.16340555 0.02699503 28.218735608130732 24.663894318817285 -22.669957573823776 
C 1.25777065 -1.13102765 -0.13836806 37.10985935767267 -3.9849990597701868 1.998681215000754 
C -1.05020309 -0.68753916 0.05987401 24.99479056693054 14.072100413124945 -2.2701120950927085 
C 0.59234195 1.23172526 -0.06683578 -46.329151966920804 -97.145769759845 14.248573115451336 
N 0.00443977 -1.5983851 -0.08400105 5.492840483899142 19.83930194092206 -9.151043864735042 
N -0.72136324 0.70669519 -0.13843258 -36.55122380592757 -50.586908840534036 4.538585385499086 
O -2.12640913 -1.11868761 0.3472118 -57.06256373691832 0.26784377142614335 8.400355107932935 
O 0.79943803 2.37926071 -0.04437661 24.730437852665435 121.24619393451042 -2.9411421372718327 
12
Properties=species:S:1:pos:R:3:forces:R:3 energy=-259799.72311511805
H 2.28583187 -1.83673471 0.02207162 -19.935855047995233 23.568447065867762 6.222942201512112 
H -0.11568553 -2.58027597 -0.12477106 5.554089326774451 9.827448047897128 5.712462842467366 
H -1.53588413 1.11522071 0.28499642 6.89008749394274 4.8313100541239224 -19.18050838612228 
H 2.42996969 0.91478015 0.18615205 0.5795190461958819 -17.233780362812936 -6.477645889921444 
C 1.48378332 0.35964508 -0.01006392 161.217512998411 -136.03222502363656 18.840361548024898 
C 1.41982542 -1.09432948 0.02789997 -7.506215207487687 62.174861202948335 -18.18496062723929 
C -0.97226113 -0.71779792 -0.01100962 20.074037588728554 -32.21700874869599 19.89833804172451 
C 0.48923301 1.22276687 -0.13933158 -97.9974193205503 14.705535184844274 0.9171483862114409 
N 0.14287427 -1.58155325 -0.0715019 26.499446875728463 -3.8433230902337305 -18.70168926319935 
N -0.76310056 0.60875317 -0.19307204 -48.099687141670735 -8.48076919056257 8.421220815068013 
O -1.98599412 -1.23618615 0.37275093 -61.01106085323364 -9.013811166660005 2.571394834210491 
O 0.5188635 2.41066651 -0.06498986 13.73554424115651 91.71331602692034 -0.03906331691542118 
12
Properties=species:S:1:pos:R:3:forces:R:3 energy=-259810.0459826026
H 2.32099852 -1.78650921 -0.07282164 -13.526864639205844 22.617365224588276 -5.157620732250171 
H 0.07529715 -2.64931449 -0.32373529 9.899993022061864 53.813735426877344 21.564420169589166 
H -1.6450012 1.15378565 0.04594376 24.423031533663274 -13.127733876432062 -9.38255170765283 
H 2.6345655 0.79379917 -0.15126421 -7.38136010949653 -1.2099560623095367 13.079301387427854 
C 1.64528676 0.34148465 0.06905526 17.714724477051284 -25.60210644427858 -22.91869895401106 
C 1.48601062 -1.01275651 -0.0620817 -4.196401306843732 -29.290135596077285 11.368418940424574 
C -1.0442232 -0.77639707 0.1158429 32.54077465485634 0.5580888882426461 -25.558749269353605 
C 0.49065753 1.19944228 -0.05663305 -22.017208148898252 -69.88111849188363 -1.104122719726074 
N 0.23252093 -1.60851123 -0.02791787 -57.91185232791994 -21.798745523313553 -6.68493096632137 
N -0.80056964 0.54346404 -0.13155154 23.436657286396386 27.7481294817762 20.749855976293645 
O -2.19663806 -1.0929392 0.28375662 -5.505052069036506 -50.67589640933022 9.421666014873251 
O 0.54559353 2.36845104 -0.16233501 2.523556441550606 106.84837456796144 -5.37698695347234 
12
Properties=species:S:1:pos:R:3:forces:R:3 energy=-259802.76973919375
H 2.29016841 -1.52071991 -0.23482404 -11.189691992288688 -37.40690041490695 0.5905554826761145 
H -0.00152184 -2.4544273 0.46801782 -5.302479445475566 -38.16118695276429 6.78056624790451 
H -1.47869595 1.25462067 0.32095926 -33.64748365028494 30.896562624553194 8.033342308204936 
H 2.4675292 0.7173468 -0.84625791 -10.757475636495139 -13.920524023670849 11.571622420782276 
C 1.51530913 0.25848852 -0.47536514 53.26045029969427 0.560861337849478 -34.590080941976375 
C 1.31711874 -1.02009977 -0.2230209 17.293444948770055 -37.154101155098374 3.539091214173181 
C -1.07965134 -0.73669871 0.17535831 -77.32711177752233 3.0790353376697976 -25.160654914174504 
C 0.56666268 1.15416445 -0.05565878 -32.421255751574655 52.216825798121036 -3.9655006043017798 
N 0.08308289 -1.5343246 0.11958054 -4.838586252065548 28.3495494568808 -0.9475919699394967 
N -0.74539648 0.64666344 0.0742306 24.7236122667215 -50.14537074549356 4.9486114720485626 
O -2.3060796 -1.14135088 0.16822289 107.56571685111356 23.65443213577409 13.895382245841915 
O 0.93828657 2.30301778 0.11480518 -27.35913986059251 38.03081778690668 15.304658224581706 
12
Properties=species:S:1:pos:R:3:forces:R:3 energy=-259815.5550915929
H 2.13092079 -1.70157656 0.02217188 19.7772799427244 -24.451179367845214 1.817381035193859 
H -0.014411 -2.68173466 -0.12515135 -6.958057570509889 50.6016984006266 6.480195405171524 
H -1.41955307 1.29442609 -0.28234728 -15.294023781436254 -7.651145069975873 2.525433596267293 
H 2.67065516 0.57546881 0.32030907 18.58769391435249 8.433319747205955 -0.2998194359463404 
C 1.6480516 0.2910946 0.17378984 -38.30017229434612 -7.18620953986594 3.522123300818109 
C 1.30439102 -1.02575634 0.05104948 17.05473087135239 -13.290073963525682 -0.8907994425571195 
C -1.0145605 -0.72151974 0.02962642 -65.69524371847012 -70.57016115575983 27.39126019528038 
C 0.56833137 1.24312348 -0.01520297 -10.891574209544148 -28.507702409859057 -33.587226153804544 
N 0.07071333 -1.61059215 -0.07319133 29.655560581423952 0.10791445852015631 -5.454615542463633 
N -0.71158527 0.56887226 -0.17259098 30.566760889265908 40.585604011539196 4.2743382093071265 
O -2.12245479 -1.18489433 0.34287642 11.876206485693652 17.92672674957438 -17.474783074850443 
O 0.59000158 2.4151694 -0.30334373 9.620837703672688 34.00120932518636 11.69650953594169 
12
Properties=species:S:1:pos:R:3:forces:R:3 energy=-259815.0453501589
H 2.1211721 -1.79200371 -0.16807706 42.30979611396895 -26.491161544076224 1.1050227579004046 
H -0.01826043 -2.55137689 0.0571373 3.0846335988305555 11.643420327687686 3.8207901187072038 
H -1.48077444 1.2497364 -0.11731871 -11.121145606692917 -9.878071934195356 13.973539711019965 
H 2.5845755 0.80048576 -0.33669063 -1.2741030518226113 -4.151170534665209 -3.1335060274430315 
C 1.58517123 0.35185592 -0.24525977 35.66350631227043 -88.10128258853182 28.009223559805385 
C 1.39567785 -1.05769012 0.01849309 23.929439452142436 110.15446024723505 -42.278590047307965 
C -1.00439398 -0.76030643 0.13583094 53.27874158933729 23.847905954444858 -3.0842897107270564 
C 0.49444924 1.21085457 -0.08712217 -26.989985468054442 39.68666272167647 12.684661328957352 
N 0.18012633 -1.53674245 0.1237522 -55.86791781014078 -35.67616020865816 16.726417341478523 
N -0.76697465 0.58630695 0.21663687 19.902088793694745 21.62913042409935 -19.690876277988647 
O -2.06125825 -1.27247848 0.03980565 -81.98301873990384 -39.88600635452766 -3.1906590444235596 
O 0.51815287 2.440663 -0.16866129 -0.9320363694508652 -2.777726510488991 -4.941733709978577 
12
Properties=species:S:1:pos:R:3:forces:R:3 energy=-259808.6664802358
H 2.14483508 -1.8007937 -0.25718635 35.65787959140455 -17.092549076168936 -7.525387562168293 
H 0.16011382 -2.54092337 0.57161676 -15.987616440668067 -11.76901182054875 -2.4687904823367814 
H -1.58033016 1.22764391 0.05471262 -11.321915782263101 -0.983085965504805 2.879722536165821 
H 2.42686436 0.83832841 -0.58248194 19.28797816174998 -4.270787861093758 3.7908469514607925 
C 1.60553503 0.29367771 -0.12971529 -38.45574608654814 14.407704370792997 -5.8887209111843335 
C 1.41013878 -1.05157428 -0.1059424 -3.3752771515186994 13.82468596668875 12.260103005482417 
C -0.94004122 -0.76537346 0.05112291 19.19103017626831 17.819179895578657 51.56272453720245 
C 0.41517181 1.23659567 0.00592881 52.31422439560039 -34.347740623798366 -12.491998611882423 
N 0.18340829 -1.62773632 0.14143269 5.277889074433276 60.72877022399738 -11.75682039436918 
N -0.77585336 0.64502866 0.28044304 9.298469880526216 -56.17565734485702 -11.105273391984856 
O -2.04077146 -1.18813594 0.02070871 -78.74600002166544 -39.758595812181184 -14.708280360567036 
O 0.49110624 2.40703925 -0.24264151 6.859084202680713 57.617088047095045 -4.548125315818574 
12
Properties=species:S:1:pos:R:3:forces:R:3 energy=-259822.1559941282
H 2.16660048 -1.84255444 0.18276788 7.457220639307417 -14.464951067636203 0.06010808302852846 
H -0.20284953 -2.53472831 0.1221511 -1.563378167023037 -22.342604558997607 0.2115184575361066 
H -1.36546106 1.44849554 -0.04468247 -0.8253907394505166 -31.847670553895707 6.2081443406722245 
H 2.61873669 0.69891346 0.05558354 23.110669151594802 -2.007789506459298 3.2222481312825817 
C 1.63621227 0.26644203 0.10481682 12.034646407365173 -63.92843795091158 -9.21951317196279 
C 1.37100685 -1.11549707 0.10695327 -35.13888485142454 49.78179208351637 -1.9234064807868625 
C -1.07749204 -0.72343988 0.07034722 37.11845063115492 35.696926306825326 -2.7359144603876695 
C 0.59984347 1.19478024 -0.10495191 -47.2006284555244 36.8917489209388 7.909421637198459 
N 0.03570475 -1.56877087 0.00492001 53.298002880596385 28.965641595794345 8.453759744585321 
N -0.7056135 0.63827663 0.10140224 -4.699462169421266 17.778020047052937 -16.30001269463411 
O -2.1820373 -1.17345085 0.09565501 -51.432947096047066 -11.506960784935 1.6910768638838187 
O 0.666957 2.41209773 -0.34174876 7.841701768872133 -23.015714531292385 2.4225695495843893 
12
Properties=species:S:1:pos:R:3:forces:R:3 energy=-259815.9379570325
H 1.99427013 -1.99906951 0.0097921 15.769261724798607 -1.5944964829265789 -3.464964354732349 
H -0.24430129 -2.39879079 0.11823001 1.031341767173075 -62.524976052763016 3.837366711116915 
H -1.46497654 1.2896643 0.14193488 35.34692648165216 -16.215532431635854 -0.9127181587815335 
H 2.68058255 0.56533887 -0.29616749 36.73877089100768 6.597997239577808 -0.5370441221295388 
C 1.71393771 0.18092986 -0.1210023 -30.39124158706094 -7.775721500021093 7.270843959600244 
C 1.3433149 -1.12684603 -0.02768518 28.441738742502668 5.84084101478782 -4.949798478916159 
C -1.13286935 -0.67899386 0.10127939 3.4936991703323272 -19.83582155615044 -1.7632720208398225 
C 0.64634776 1.14551564 -0.055211 -14.359070292210879 40.54055585580185 -15.530333013771514 
N 0.06701929 -1.48331483 -0.00518651 -85.43587941921406 -0.28069925739178236 8.334282345040263 
N -0.65979212 0.58112522 0.1104446 -59.68540304559126 71.90836969335889 4.132144035973329 
O -2.32181311 -1.06767155 0.17454147 64.88857235006043 9.37436242750536 -4.134497890750728 
O 0.72414612 2.37758725 -0.1881228 4.161280844908087 -26.03487895014296 7.717989802369847 
12
Properties=species:S:1:pos:R:3:forces:R:3 energy=-259807.39079305332
H 1.99194968 -1.92396323 -0.1257806 39.794539233923146 -39.0826398693747 -1.1301823230450374 
H -0.25139164 -2.46949291 0.13332181 17.233584702340256 1.660762534649837 16.524911956859476 
H -1.43858371 1.18801929 0.10046483 -17.727622652574595 27.279226194444515 -3.286684461131014 
H 2.59978057 0.51973183 -0.37239792 32.365365634008704 -3.907975239512635 -10.482956878397971 
C 1.60110837 0.14563953 -0.31892006 18.9541185468414 32.567684491865684 -3.693825445074236 
C 1.29206427 -1.15514314 -0.11340754 -13.931376657888867 56.46627836694528 7.934789906847285 
C -1.09927626 -0.75550756 0.04655798 8.96649927854479 68.85609122178343 22.231223945558394 
C 0.65914236 1.25460134 -0.15986789 -51.99862998227181 -82.67897118301829 19.593555944698362 
N 0.06064701 -1.49199081 0.32610023 -68.78169280932293 -78.23236400699479 -31.16973784740462 
N -0.65633378 0.61122145 -0.14153015 -23.554242115551155 -14.97881713158989 0.5794099506595993 
O -2.2826893 -1.09447178 0.16167154 44.858074552698014 0.4233404852601297 -9.47844431240307 
O 0.77994512 2.41791749 0.10289097 13.821379897610969 31.627387693004554 -7.622060437167163 
12
Properties=species:S:1:pos:R:3:forces:R:3 energy=-259810.2061459496
H 1.86451697 -2.03927187 -0.36197289 26.341247675729388 -17.470344546673207 -1.9436460744093629 
H -0.60096626 -2.33098912 0.14323373 25.346969931187253 -36.743565165498886 -6.210282376019152 
H -1.54735922 1.284772 0.3059024 13.107331825326181 10.619977314505674 -3.9951817050969045 
H 2.61021497 0.51385089 -0.58845198 -3.6572760687774992 -7.060485235047664 3.912390051268938 
C 1.62297056 0.14253841 -0.26200017 -1.477089526928797 -10.114541252371904 -4.0633604861682455 
C 1.27075975 -1.18379095 -0.13081031 -0.7587345526029438 24.137840386147165 -4.8256430153424645 
C -1.00507209 -0.63957668 0.16320472 -112.26302675533532 29.646870884794843 -10.304879760195595 
C 0.60536727 1.1681758 -0.07202178 -16.004112397246615 66.44353000183192 15.755621225300152 
N -0.00928025 -1.49994517 0.19477728 32.11798320474076 -28.90817907952067 7.044355697172501 
N -0.69959253 0.70246463 0.27672801 -3.191259069873113 -35.991143924147764 -7.1520875392514895 
O -2.15160872 -1.15952639 -0.01953046 30.916524736050803 40.031874201463665 17.358507392131063 
O 0.75343094 2.40455498 -0.13535826 9.521440997729893 -34.59183477130422 -5.575793409389441 
12
Properties=species:S:1:pos:R:3:forces:R:3 energy=-259818.5819345977
H 2.15137676 -1.72907701 0.00728977 10.356077583880355 -0.953771283413064 -8.614803729275064 
H 0.1269903 -2.5670703 0.23867321 -11.274176998571129 -21.491820647656294 -0.6331015560052504 
H -1.48846556 1.27689861 -0.03535849 -5.1290720905545015 -23.857776728836335 7.640690871629498 
H 2.6826927 0.6725182 -0.13467263 -1.8945945868188587 0.4067188316506507 -0.9933065571050119 
C 1.63716842 0.34218841 -0.07139686 -12.347301170319362 -10.153450412551273 -16.28498834197433 
C 1.33174935 -1.01092199 -0.10176074 92.9257919589538 35.943202365056834 21.252103365633246 
C -0.98846 -0.81574723 0.1134652 -89.8487618446737 -6.001602774068485 1.2510364608251379 
C 0.53116726 1.31031316 -0.1032586 -4.131211980630741 -75.37036712383278 20.754956192614852 
N 0.16958448 -1.58647802 0.04534883 -55.75783448492649 13.1919105114713 0.015450062415488512 
N -0.73693176 0.57068327 0.10353244 12.086719366982283 18.312081829250403 -16.98284877115268 
O -2.1445989 -1.33485132 0.16981799 66.77907466844763 30.0414919701286 -0.9492924373202482 
O 0.53710224 2.50273434 -0.18273316 -1.764711607590333 39.933383462800435 -6.455895560285639 
12
Properties=species:S:1:pos:R:3:forces:R:3 energy=-259818.19478918705
H 2.0263133 -2.0514138 -0.26986161 -3.239716461119296 19.824207624820538 13.224463670841168 
H -0.09138607 -2.52808784 0.13582706 -20.05004487149373 -23.264975301098055 0.8115403496268229 
H -1.54083286 1.29546345 -0.33325658 26.44626754507492 -26.251593675505042 21.511266926998655 
H 2.60029095 0.53732557 -0.0121069 45.33310023409303 11.349687711173283 -4.247018078215682 
C 1.62398295 0.15873227 -0.04106295 -29.729991011052704 -14.88265653128313 -14.81943211054427 
C 1.32505196 -1.19120625 -0.07283942 47.285285405858595 41.80165637984904 -10.100170287108774 
C -1.06762113 -0.70687955 0.05744735 6.265625830082646 25.139837825702333 10.891154428893667 
C 0.58098486 1.21389409 -0.13711754 -4.527074620600233 -33.625883919922046 43.49907027140562 
N 0.05166379 -1.54634265 0.02348384 -42.84634219125894 -21.04632665360453 -2.7639567564964627 
N -0.74412342 0.63736029 -0.04073367 0.9062744072145855 44.39277734716888 -37.37091667524942 
O -2.2093294 -1.05088533 0.24621975 -22.202630242662952 -27.31896542935647 -3.6506473291272896 
O 0.77844314 2.41417126 -0.05572265 -3.6407528383148837 3.88223580787624 -16.985354411024034 
12
Properties=species:S:1:pos:R:3:forces:R:3 energy=-259818.0380721359
H 2.21800029 -1.70168792 -0.10778077 31.900096888184688 -32.90681270968408 5.40633958183757 
H -0.0523908 -2.55423949 0.30324566 1.375438575176513 -5.596305741852647 -1.3814305289247257 
H -1.50172978 1.31036342 -0.27549705 -31.265567603639393 3.781863171212136 2.6710583498887583 
H 2.63731287 0.5912457 0.0139251 3.38115289480435 9.990557732849961 -10.547705079181647 
C 1.6078328 0.25894199 -0.12732254 -15.430239045053352 51.21271403963987 5.866746461370733 
C 1.38533836 -1.0631586 -0.02611851 17.416405104728828 16.726475446709802 -2.5238066497914278 
C -1.00339755 -0.72216797 0.05751875 -38.18425354376176 -67.72245223038769 25.90039735689592 
C 0.47048046 1.25726996 -0.13052318 49.06587278562012 2.788576773064916 8.897709799634475 
N 0.18327351 -1.58274435 0.12431679 -75.13380056833041 31.899348635104314 -10.4570372019625 
N -0.77973165 0.61777867 -0.20881726 25.296801400170903 -19.89175436327407 1.423305427541515 
O -2.09192501 -1.29588971 0.300864 37.00650793853964 40.16768391428285 -18.154564476353098 
O 0.55927559 2.49102876 -0.0528514 -5.428416012261175 -30.449894667665347 -7.101014226776618 
12
Properties=species:S:1:pos:R:3:forces:R:3 energy=-259817.37216721204
H 2.21921601 -1.80388125 0.17891854 -21.598588417224434 21.080539962439566 -0.37208337052304397 
H -0.09574817 -2.58094981 0.00413112 -11.852791263308491 -67.46427645795407 3.5513099142368234 
H -1.50504685 1.22494575 -0.3583089 1.6266097026881758 -6.879456608260428 7.662415113202277 
H 2.4852017 0.70375679 0.32701557 43.474622198888916 11.49547610809917 -0.3996975852340333 
C 1.56300865 0.28290143 0.04525226 -2.2206337119254465 -3.1929547939696787 13.996287316155918 
C 1.36665555 -1.04511614 0.09063499 -10.744471922898683 -66.44694516644597 -3.6834163079276285 
C -1.04546785 -0.75194236 0.0966002 0.7339852815404171 -31.027680043491173 -16.873066644484208 
C 0.5122679 1.2607514 -0.09423024 32.60991276515435 2.70019397300247 -11.89824734148586 
N 0.06717753 -1.63146448 0.0125281 44.53158481559374 125.66245002084747 5.7422222074515625 
N -0.69665469 0.61183557 -0.15315383 -66.602620939258 -5.00125955487325 0.9899471260801382 
O -2.16798225 -1.22959406 0.24595015 11.239041120961877 28.39926500425737 -3.060540086806771 
O 0.72457283 2.46720936 -0.23630886 -21.19664844439138 -9.325351257830437 4.344869659334821 
12
Properties=species:S:1:pos:R:3:forces:R:3 energy=-259806.13938366264
H 2.06496663 -1.96224718 0.08044616 6.197602391568403 1.7087242526985629 -15.114979033259896 
H -0.1610851 -2.41617514 -0.04841203 -11.176684721229092 -54.385118554872854 0.9768758206840273 
H -1.38653319 1.30517788 0.03221996 -92.33765317957055 102.22281869526634 -18.276577161295677 
H 2.65330099 0.47770341 -0.54170759 5.56947061156924 8.63348871150554 17.529219375813323 
C 1.69777823 0.201661 -0.074351 28.812032709066468 -23.080905043326418 -24.960801378273302 
C 1.36973263 -1.12106996 -0.06748602 -7.4171126140499855 4.130990232095036 20.106044084595965 
C -1.1706536 -0.64935325 0.07928985 55.3942712386229 -4.545448917716512 15.612795009348542 
C 0.65344893 1.14731007 -0.05516182 -53.62609466193455 23.03760597363273 5.888820520152244 
N 0.07570643 -1.47225649 0.0280955 -53.865986259651436 24.330415352464648 4.991127899851535 
N -0.71682227 0.69181715 0.20843628 74.46859053584775 -146.01943162620896 7.544265833229355 
O -2.27709392 -1.18145167 0.11103075 28.975983141141306 26.113490584781843 -6.116078380439197 
O 0.72416235 2.34460285 -0.19978022 19.005579622798496 37.85337152550107 -8.180712590406921 
12
Properties=species:S:1:pos:R:3:forces:R:3 energy=-259798.7944803973
H 1.94505487 -1.86478964 -0.33509028 40.12843798092626 -17.908337036784495 -5.633291500294513 
H 0.23697768 -2.22594393 1.06755952 -19.845137366292132 13.784580313073409 -27.810628180034573 
H -1.52941903 1.24255881 -0.62670591 -5.492616363721345 -19.159245428936607 8.274036706770337 
H 2.62192348 0.68810942 -0.43031247 2.1665365557818754 0.3525303672864954 -4.318500556722709 
C 1.62754054 0.29772618 -0.18729858 19.52371701416185 29.231360375905076 -29.77008362063653 
C 1.34690927 -1.00792013 -0.16476923 -26.877668055988444 -6.984126660397226 47.81621899213526 
C -1.0637084 -0.75659577 0.14549559 -31.956948706619396 -22.88572364234862 -27.921184647846445 
C 0.54538247 1.26810787 -0.10951916 -30.703020028261726 -36.71548136565346 4.387056428886853 
N 0.1516635 -1.41918357 0.39742245 -0.32886019337632844 -18.424883056303386 6.022314324467511 
N -0.81289262 0.5390358 -0.37441976 39.78419413111305 30.74486053806816 26.776661005064437 
O -2.13221934 -1.40111017 0.16121848 28.362435774193646 41.88849286926679 11.214913220127741 
O 0.66105356 2.45688391 0.0762587 -14.761070741917308 6.075973912644906 -9.03751335773843 
12
Properties=species:S:1:pos:R:3:forces:R:3 energy=-259812.34594419555
H 2.10500498 -1.74722685 -0.08872351 53.760080581984134 -57.29385931786877 -1.552252793964313 
H -0.12818116 -2.48619748 0.49762002 -3.9100302673863054 -1.3832377201996666 -10.229844561833106 
H -1.55342023 1.3641321 0.2369489 12.33250568112157 -12.37383984534113 -9.092650478939824 
H 2.66059184 0.5920019 -0.01569339 -12.321316273726332 -2.858447720769683 -4.324397644787197 
C 1.61696738 0.20512297 -0.0120276 32.21394458711171 80.91569441889428 9.68534281114182 
C 1.35732979 -1.05687066 0.00149907 -91.93375423036858 -69.74240707496354 3.432967345433314 
C -1.03511567 -0.71277011 0.08466971 -49.82312624773593 13.09320632501969 -5.558631021382735 
C 0.55771338 1.18399743 0.00199267 -15.8912340918256 62.52180753892664 -32.64719023557366 
N 0.01770918 -1.60243399 -0.00094813 69.9118988487889 39.397373376623484 9.931943784340083 
N -0.76416588 0.70303752 0.07952221 14.73051450518983 -48.670202248660175 12.641209288348653 
O -2.1703191 -1.16833162 0.0816116 -7.4409499887277155 11.94013646995521 9.383480205532276 
O 0.75516313 2.3848473 -0.24737159 -1.6285331044256783 -15.54622420161632 18.33002330168469 
12
Properties=species:S:1:pos:R:3:forces:R:3 energy=-259819.71183779713
H 2.12791769 -1.77169411 -0.04246306 19.839565193194396 -35.78143977281288 -7.08320675212059 
H -0.02259965 -2.61709546 0.01399539 -15.333753529779836 15.618006692848127 1.4262901391156793 
H -1.47623342 1.24095648 -0.03389133 -0.13609905315453585 1.7473108695532713 8.705279503484668 
H 2.69375129 0.44262314 -0.39142608 0.6983027404287074 10.880404961106702 12.316599077603158 
C 1.6810356 0.22345606 -0.02818747 -45.38941843305679 2.4713577849025596 -10.18001398981502 
C 1.30962521 -1.09958484 -0.03437558 15.152639523877248 44.133046963343226 5.267821453748074 
C -1.0960994 -0.72883027 0.13728302 30.353054591898914 -22.373801139090226 -23.904641562416998 
C 0.55331515 1.24825477 -0.01611015 74.01571480578123 -21.50035025844412 -14.78443734563956 
N 0.04995339 -1.5841479 0.02836773 -15.312667259930098 -7.979043562483451 14.8614481218656 
N -0.68235369 0.62144367 0.1827256 -44.6753371577827 6.266319535394878 -5.001719653439312 
O -2.23256277 -1.1594033 0.03965936 4.511304386502177 14.47106871841535 10.461007330826348 
O 0.73930723 2.44042154 -0.23999177 -23.723306993799756 -7.952880792733437 7.915571305145863 
12
Properties=species:S:1:pos:R:3:forces:R:3 energy=-259819.2743492523
H 2.28582319 -1.79946456 0.06528725 -15.96564080503342 8.676994114061333 -7.514566945118532 
H 0.12949613 -2.61305033 -0.11196712 -19.42809951989441 16.385004046503422 1.9436863923249454 
H -1.66444804 1.05339182 0.03003221 6.510316445574918 15.742913966965329 4.267308662143184 
H 2.58887515 0.84191156 0.20557358 -1.1376731545960883 -14.78889484695354 -9.601250311625789 
C 1.6380326 0.30580064 0.00014947 -18.6930114247807 2.523013335511286 -4.242082691019943 
C 1.43328915 -1.07718352 -0.07000097 16.68783072462381 55.17639678027729 21.801474097541664 
C -1.01852301 -0.81127963 0.13815258 92.0329706915123 44.95753529297732 -20.406748143043025 
C 0.46439137 1.288427 -0.09941551 16.76083223989147 -32.16814224918875 16.655404448105926 
N 0.14690278 -1.57596395 -0.07012288 21.767575031283965 -24.074385916125273 0.6180665309560541 
N -0.74650961 0.61028317 0.15614705 -21.552046126968428 -38.69595429848445 -9.616313796380105 
O -2.09838606 -1.27219365 0.1862432 -79.45471427088285 -30.81186891376656 9.051086265437233 
O 0.52332262 2.49707896 -0.25021779 2.47166016926943 -2.9226136834195025 -2.9560656951426534 
12
Properties=species:S:1:pos:R:3:forces:R:3 energy=-259815.19731230283
H 2.09327375 -1.83419506 0.20063773 42.830576700445064 -10.994229551722858 -2.922921996891606 
H -0.1379375 -2.57763788 -0.08857291 19.487945536471653 6.392011823044899 2.192465718785719 
H -1.51680081 1.25452371 -0.24160321 -16.994377323367225 1.4346003730098953 6.27040468890024 
H 2.61729142 0.62359667 0.04152568 11.161609378264313 19.58377766434852 7.300806099983401 
C 1.57743562 0.32619431 0.05322123 38.36469400330991 -7.2117035065457005 -8.861244616632042 
C 1.45140272 -1.01557944 -0.01028588 -97.94316089274442 -25.436965447873007 0.647765419066877 
C -1.03542267 -0.80396706 0.14401063 65.39413885250931 34.17326721575645 -50.58881208331374 
C 0.49364895 1.28059733 -0.09655862 -5.800628637278294 -17.23797461185458 4.636400206165784 
N 0.13637074 -1.58048697 -0.14092851 -7.301083582108293 28.82159516998584 22.882632206880267 
N -0.75027337 0.61166643 -0.07798454 -10.411700891710835 -30.055655416708582 9.204258770019981 
O -2.09329513 -1.32792603 0.31929463 -39.26180201383467 -2.830465901534263 12.243241816021536 
O 0.57124861 2.49543231 -0.19007571 0.47378887004346903 3.361743375914434 -3.0049962289864096 
12
Properties=species:S:1:pos:R:3:forces:R:3 energy=-259810.5659990813
H 2.08666344 -1.86081838 -0.17996937 22.024420312503363 7.454304705353953 6.93766974925657 
H 0.02118166 -2.49061579 -0.08832655 1.0393104846058852 -4.467328212990902 8.945626456483431 
H -1.44491204 1.25979981 0.38940269 3.698081356810301 -8.620347442667681 -14.594587396087045 
H 2.75116663 0.40638165 -0.51781275 -27.358351289596552 21.46488709422602 9.498931742624297 
C 1.66489263 0.26089899 -0.21606749 41.40267384470609 89.4489480489771 -12.650225085765568 
C 1.43741438 -1.00416779 0.03070618 -48.180664489297484 -78.81774930990794 -18.67114251304024 
C -1.07714762 -0.75877481 0.09459072 62.36064615795328 -24.04065760809828 7.419091749376675 
C 0.53228799 1.29001119 -0.1076282 14.260574810263462 -81.35912745596714 0.14801418303026143 
N 0.17227983 -1.51659225 0.18001276 -46.53788848828171 -0.3045378178905594 -1.8935890105713848 
N -0.71068324 0.59069801 0.07759727 -43.18244775122968 11.257747447971191 17.619944172442704 
O -2.14727961 -1.34337116 0.08054674 2.882123823785083 24.67739607725329 0.08559849224514839 
O 0.48373038 2.48230203 -0.13226259 17.591520041956922 43.30646565956197 -2.8453337258158964 
12
Properties=species:S:1:pos:R:3:forces:R:3 energy=-259806.67327204903
H 2.05703503 -1.72272477 0.28155736 37.97506403876108 -7.22990230214709 2.6059128990544886 
H 0.22161733 -2.54569614 0.14483325 -19.937222299661904 -24.574268778298055 7.644308811642518 
H -1.62377856 1.22894084 -0.45546371 20.429711567609452 -27.530357004040596 13.95451558397018 
H 2.36852734 0.84255806 0.52069625 45.939079691121606 18.235337862759838 9.146965826155961 
C 1.53084278 0.37101884 0.11572098 -24.321682966277862 -37.78568486016404 -8.787862452808444 
C 1.37249392 -0.95071591 0.00395903 -14.14250379447961 -37.18014415692269 5.214032611076607 
C -0.99107613 -0.79163644 0.08413584 -13.082493617685165 -24.370466458311846 -22.06576277747025 
C 0.41350474 1.22601072 -0.13346183 42.17708613736545 28.15439532978707 7.270674387190588 
N 0.15128615 -1.62009576 -0.2249882 1.9283549120141117 83.51479596185739 3.425936612448324 
N -0.79339831 0.58692576 -0.27122323 -43.83459359324251 -3.9746065241182302 -5.038895143248627 
O -2.03110128 -1.27764363 0.489486 2.935227261891646 13.537616478634904 -3.8515254144127113 
O 0.65688052 2.42964637 -0.13898307 -36.06602615159525 19.203285636784393 -9.518300943598634 
12
Properties=species:S:1:pos:R:3:forces:R:3 energy=-259813.74848948963
H 2.20742787 -1.64825832 -0.23255021 19.68415030101262 -18.9265600657196 5.139756338183909 
H -0.01587149 -2.50348501 -0.15327803 -10.344871574990465 -80.76146179029591 0.7449458254736706 
H -1.71431952 1.0807633 -0.32709954 -6.495496054135148 22.941440630041775 2.694151028949255 
H 2.66529881 0.59722821 -0.00182857 8.7404224960202 24.918006282524388 5.1534656153030625 
C 1.62098735 0.36145383 0.14103705 -22.100641331912403 -57.9301495466682 -7.051633080935173 
C 1.40112849 -0.98790438 0.01824533 -31.27287107546509 2.3939129981734832 -17.30032271084004 
C -1.00938953 -0.78135561 0.07134203 -40.7663693860541 0.6857733552508695 6.354076221944745 
C 0.48589829 1.24345447 -0.05255614 -20.042544553374302 8.064254291246376 -8.509212294185097 
N 0.13039622 -1.56035408 -0.10338918 41.882748752117315 107.96494722285524 13.045142626360962 
N -0.83163804 0.63080037 -0.14160905 43.663684763266524 -73.30546847577168 18.55343910178083 
O -2.08159698 -1.33371903 0.36264457 20.64056240789635 24.648969575125417 -15.758011840529997 
O 0.62187111 2.42673555 -0.23692716 -3.588774744381496 39.30633670905887 -3.0657968315061233 
12
Properties=species:S:1:pos:R:3:forces:R:3 energy=-259810.54855708586