12
Properties=species:S:1:pos:R:3:forces:R:3 energy=-259802.780571593
H 2.11637785 -1.96712389 0.1300881 14.967779509288613 2.2013060146877423 4.003923577852064 
H -0.10068561 -2.43671301 0.75983946 -2.6832580768156555 25.102740600082093 -38.52870491225812 
H -1.46530877 1.04847711 0.14588702 -42.72430934735856 34.8171241686539 3.639663068773105 
H 2.70002265 0.49202354 -0.35213872 -7.328295803484503 7.994065543501135 13.363469171380794 
C 1.6573889 0.22426323 -0.08342538 -11.438985965083663 -35.693515885495444 -9.51420511770385 
C 1.39691284 -1.14837422 0.10483924 -30.07014970736055 48.45049213933451 -28.102560720200312 
C -1.00058879 -0.73980521 -0.01952122 -72.22251859083173 -28.245747425750075 11.766287989604827 
C 0.53400197 1.25364339 -0.11852999 13.130189711819463 -15.141847366532607 1.356910121324183 
N 0.07386198 -1.65028052 0.04017112 8.434076301033652 -4.658128005201704 47.8031310852445 
N -0.78758549 0.57347375 -0.39266792 94.20720678334942 23.01804111218571 10.86384971347583 
O -2.19246744 -1.03133531 0.24687706 51.25400314265966 -12.365221297974811 -2.591892936821139 
O 0.66999318 2.46242026 0.10608545 -15.525737957216139 -45.4793084116694 -14.059871040671885 
12
Properties=species:S:1:pos:R:3:forces:R:3 energy=-259815.9197680774
H 2.26273384 -1.77624658 -0.16679284 10.46843175639879 -16.668874189373682 0.41811931519217393 
H -0.03155584 -2.51648062 0.25515196 6.955674070206325 24.673444921526194 -8.414295620156166 
H -1.65344917 1.13130674 0.24878266 6.602885193931684 17.632443912094377 -5.087669148714239 
H 2.69144656 0.66598766 -0.24267593 -19.563937692418705 2.2741581165035343 -3.9078092245661185 
C 1.63885067 0.29164175 -0.15136958 38.708736263545205 -0.5144186565613816 -18.556716711153488 
C 1.45506701 -1.06851643 -0.10704005 -43.947341458348404 43.460832285938594 22.44684415809451 
C -1.0235581 -0.75532891 0.19438815 27.28297338895161 22.72657104222812 -32.23401816578769 
C 0.52576437 1.20705115 -0.14546206 -64.96421468879875 83.61895848258627 45.76848273208086 
N 0.1720603 -1.4869177 0.16247791 9.556219943204132 -72.25729160720074 4.3764812767937284 
N -0.77438732 0.61193939 0.23645124 22.476354500658932 -38.356568757498955 -8.025392563908868 
O -2.08413506 -1.30270409 -0.00951824 -24.59344350462076 -6.822253786795945 17.93906047427954 
O 0.4566435 2.47002099 -0.18853752 31.017663413110974 -59.767002949267436 -14.7230853363332 
12
Properties=species:S:1:pos:R:3:forces:R:3 energy=-259819.15913890756
H 2.14099611 -1.87959885 -0.3962831 -10.963215588071412 -13.14581646157089 2.741688223063317 
H -0.20923411 -2.53166514 0.11254344 -9.864771765337261 -19.534097691603343 1.025161267878461 
H -1.36418221 1.44976961 -0.00127675 -39.17747353593038 17.840275651996766 5.504082067420428 
H 2.6348479 0.48575955 -0.13948445 19.7874697029774 -1.2823670386960122 -4.475777187947565 
C 1.62505516 0.11227036 -0.15193622 -20.682943652100015 57.81474188495489 17.675054019760026 
C 1.29545117 -1.19370531 -0.22592957 14.071346230939339 14.072911514720783 -5.780189825719972 
C -1.07585191 -0.67177794 0.10538533 46.43243935171732 12.81888441321625 -11.902709586084024 
C 0.59336116 1.2335496 0.01276169 9.728612235309352 -43.83679566292595 -35.69323128844428 
N -0.01170458 -1.59369457 -0.18437813 1.04134653934281 30.756304896988414 2.4451120076792887 
N -0.71003455 0.70895164 -0.06557357 18.625357962432982 -62.20347625062262 9.225860872024967 
O -2.12574943 -1.1231746 0.45364022 -45.897705208986466 1.6846508996325693 8.257837205453429 
O 0.72569386 2.4438177 -0.01322659 16.899538913527365 5.01478502973019 10.977111039094872 
12
Properties=species:S:1:pos:R:3:forces:R:3 energy=-259814.1019771746
H 2.03712833 -2.08762317 0.24151848 -6.079466155626992 45.64891046685208 -14.564931197533898 
H -0.06999164 -2.47099038 0.33996557 -16.57378794293509 -37.289422309646376 10.984355219868242 
H -1.45434055 1.31636939 -0.15077878 6.915155750866789 -5.872970836044068 -8.353302914626912 
H 2.79965919 0.41332072 0.10589244 -6.319002007029916 15.931263852893963 3.0994777066912578 
C 1.72072532 0.20167165 0.05975068 -9.575532224768233 -16.959073059169366 -14.931345157633391 
C 1.39747811 -1.1364308 0.01052314 -32.77003180942778 -37.7736060869839 21.793110501700355 
C -1.08599981 -0.66717168 0.05361227 34.90041030985828 -29.911250872944017 -22.950978188719176 
C 0.61004692 1.1820153 -0.08527164 -26.099033054582318 38.42487442142228 -13.420361307731081 
N 0.05098345 -1.58392593 -0.07589547 23.11344634448582 65.69372586753055 -2.651692706377564 
N -0.72843234 0.60340367 -0.359246 20.70052463493616 1.2280920093954588 29.752322393001315 
O -2.17832536 -1.07461954 0.3644244 -15.56490444056261 0.7972203746686956 6.659263869768814 
O 0.57924569 2.42648285 -0.0463918 27.35222178060694 -39.917762642154244 4.584079409949943 
12
Properties=species:S:1:pos:R:3:forces:R:3 energy=-259811.89738339162
H 2.08137625 -2.0053867 -0.04721733 9.926231684358855 3.47077487786044 2.788449890212935 
H -0.23009231 -2.56665159 0.26827292 15.79309435619215 42.69394877110377 -13.198331732438362 
H -1.61780202 1.00791248 -0.11865175 -25.330424170124754 51.82690412159475 -2.9192127486579995 
H 2.58295104 0.47788868 -0.23666196 36.990594220094955 17.56316231744975 2.6361074603627697 
C 1.58487425 0.19072553 -0.04776351 -8.83770369721595 -31.66404260737444 -7.249741088255857 
C 1.34756737 -1.19514062 0.00222476 19.38070225266384 72.66044348914338 -11.08712202922533 
C -1.04140516 -0.67636142 0.05511203 56.32617479611655 -30.931488611837207 -21.477873020506777 
C 0.54531376 1.25590808 -0.10274925 2.620580319579255 -55.28204394895644 3.718392099695594 
N 0.07958647 -1.56393256 -0.0004922 -82.00126852581023 -72.107329120191 25.157785227241856 
N -0.73383705 0.61229023 -0.34608041 7.374967348234584 -14.74382060315316 19.095013060308183 
O -2.1341228 -1.09600108 0.34127423 -29.528178498782598 -1.8276715902358123 6.873974557562231 
O 0.70055159 2.44250995 0.04041826 -2.7147700853066516 18.341161718774927 -4.337440490478191 
12
Properties=species:S:1:pos:R:3:forces:R:3 energy=-259812.35159922746
H 2.12149235 -1.82311763 0.47113358 12.004718655792367 13.892356030531118 -18.480763687300968 
H -0.01668407 -2.52393884 0.02135909 -13.009626100195769 -104.3496551482308 5.557806875755383 
H -1.58407912 1.1104508 -0.02738906 -4.230845850782845 13.45732927885725 5.51683675859711 
H 2.65890741 0.57197355 0.10215283 -19.486324519101018 11.052257704635739 -2.9569799631695424 
C 1.57350676 0.29983403 -0.00254356 70.04742752202004 -14.603773951734661 15.517529703931924 
C 1.41468841 -1.05986371 0.07573058 -22.490123068830414 0.9686308069473712 17.239337120237067 
C -1.05139109 -0.79848817 0.13101961 21.34811929577233 4.227556383199717 -21.379561340821574 
C 0.5228879 1.29614241 -0.07640694 -4.626498600427099 -19.71818692251172 -20.759676946201168 
N 0.16679387 -1.60134332 -0.02298586 -48.67041688226959 113.46758970352515 9.987926395947667 
N -0.72219713 0.60139335 0.16350227 -20.24371672227927 -12.35941077484672 -10.050293468069873 
O -2.20540935 -1.24217699 0.12094257 43.50264552186097 11.705519404253371 4.584865609303805 
O 0.64489818 2.48243335 -0.37575312 -14.145356879917607 -17.740213700446855 15.222971755969123 
12
Properties=species:S:1:pos:R:3:forces:R:3 energy=-259820.00651181847
H 2.26680519 -1.86677253 0.11294778 -33.69691578643139 20.573522015029695 -3.2246174017335867 
H -0.06742739 -2.51491247 0.38486448 -11.556171172545742 -43.88124379321375 5.781579607986528 
H -1.47597129 1.33517571 -0.18834116 -35.03663743168584 19.559907086681484 -5.4098033651145405 
H 2.66413837 0.59002416 -0.24522035 -10.007819729824575 1.0753191265053956 13.205179848982183 
C 1.65063569 0.24269804 0.05761142 -3.0716132837394463 -3.0809172356706713 -22.262007859926804 
C 1.38999552 -1.10764001 0.08708455 31.882278741139245 -0.4277991723951544 9.975306888370293 
C -1.06372083 -0.73904766 0.1039026 77.23840999159836 51.77393230962436 -18.375665553766364 
C 0.52859699 1.20466174 -0.06314474 8.97050616786108 49.53659156497409 -10.851546820117882 
N 0.10424994 -1.57892788 0.1425355 0.26500491584070474 56.08555866174022 1.4042884154180069 
N -0.77148438 0.67382106 0.02157148 50.490171931198645 -75.31848270976207 16.09090501128564 
O -2.14361701 -1.18855376 0.0002365 -80.44764255107403 -33.62339250990325 4.410859414754233 
O 0.63351723 2.43547635 -0.28729157 4.970428207662972 -42.27299534361034 9.2555218138623 
12
Properties=species:S:1:pos:R:3:forces:R:3 energy=-259810.28451403402
H 2.08451099 -1.84012191 -0.06092337 8.562303874081195 -4.196236477718262 0.5155653455133946 
H -0.05888532 -2.59528705 -0.02945752 -16.451962617717864 -53.28181879495309 3.8172789025883724 
H -1.35076342 1.29883467 0.25809331 -106.70368779878781 78.21571152203808 3.3609026287924304 
H 2.63440597 0.40506769 -0.19692277 18.16083984133143 15.861031229769996 7.277435938798012 
C 1.60492538 0.19395906 0.03594628 8.463160933842362 52.99909652685589 -22.341853934275143 
C 1.30237693 -1.07940547 -0.00830414 -2.4683552860126974 -81.02029332176828 -10.79049838099944 
C -1.04094095 -0.74586659 0.12798487 -9.869229266651239 23.844756413745223 -18.658660560704266 
C 0.55872377 1.22465532 -0.09562316 27.48804097999449 -41.189505910094226 33.56240454765818 
N 0.04354166 -1.63117058 -0.11591029 -2.3486134483742607 99.89377959490747 20.785514800984423 
N -0.66319878 0.67502765 0.23902473 69.97340027154713 -135.2659427200723 -11.698698561593622 
O -2.20775807 -1.08542881 0.11822527 2.134576306935284 -3.074002713148243 9.046486465597667 
O 0.72131068 2.39985946 -0.26933054 3.0595262098119713 47.213425836258764 -14.875878378181056 
12
Properties=species:S:1:pos:R:3:forces:R:3 energy=-259812.62512488937
H 2.07162373 -1.80087864 0.32577939 5.761879562940207 5.617824836384373 3.24492814461888 
H -0.22637299 -2.56885501 0.28577861 21.265016956830166 14.383296616191876 -7.293767066251085 
H -1.53423584 1.17967792 -0.40401223 -4.046922634820982 -5.708534217340148 8.302397988740653 
H 2.58414177 0.48907365 0.36407046 2.7096176928593962 13.62808869538137 -8.737542136698131 
C 1.55709057 0.25793502 0.05940571 33.73978558890624 37.659565676937255 -5.164193738311193 
C 1.29420737 -1.04504968 0.13190333 8.961356372665906 -59.03288604159086 2.52203266150579 
C -1.04556626 -0.78597589 0.0485923 82.05851759429554 48.042168891807876 -28.948163779389258 
C 0.56871665 1.29490231 -0.23634286 -11.390603280563413 -19.887639564242544 54.809290300686605 
N 0.07038185 -1.61149078 -0.01760489 -21.562079358843278 -12.773461538028185 7.675690379818393 
N -0.73958425 0.55668287 -0.21250147 11.282578540685927 50.45660963811817 -22.301175529094323 
O -2.10194711 -1.21723735 0.30069995 -108.9298711532111 -32.82942365654419 19.601111996406974 
O 0.72297556 2.51967979 -0.13805537 -19.849277067565637 -39.55560815125396 -23.71060803621226 
12
Properties=species:S:1:pos:R:3:forces:R:3 energy=-259817.10885688485
H 2.35621004 -1.7453235 0.06977421 -36.37469418419094 -4.924063790563949 6.051823481210886 
H -0.19642416 -2.57103371 0.26730885 12.26407432016731 34.20817422990371 -6.2506429811594995 
H -1.4434326 1.24761497 -0.11247364 -70.9620690825391 47.95614231816493 0.9178100743554154 
H 2.66945221 0.69140863 0.09950199 -21.027635742268824 -15.769835662185136 -2.162449030634421 
C 1.63261766 0.23422211 0.07402308 8.016195335871835 23.193311391970905 -15.59099961851297 
C 1.3948182 -1.1327047 0.09428481 30.842234233305547 40.953630688262 2.7414297140751693 
C -1.03079305 -0.68816048 0.02959325 -42.62542847357102 -87.57675599336966 17.741595181966087 
C 0.53602891 1.23912653 -0.13424221 13.747502060589914 -52.900640177003005 19.30620423123544 
N 0.09741626 -1.55760662 0.13095071 -9.715913277721857 -38.88123883700776 -3.6445498373059344 
N -0.76191065 0.58086653 -0.19747862 95.28525448408293 27.513377232475055 -9.9924337017456 
O -2.1655076 -1.17917666 0.16081894 22.839757661121237 13.925197344415299 -3.8195841387028637 
O 0.63272643 2.44492965 -0.17090415 -2.289277334847035 12.302698883295509 -5.298202188960663 
12
Properties=species:S:1:pos:R:3:forces:R:3 energy=-259808.39269941978
H 2.01522616 -1.94728092 -0.36867723 5.776060796835888 20.10293249016982 17.544689597186604 
H 0.03189471 -2.41146905 0.4213138 -14.327759873297795 -17.878183979212846 -3.3610923601598786 
H -1.66977429 1.14950175 -0.07674569 -26.48318334007504 29.60411492114047 -9.7068607198525 
H 2.65402415 0.74402829 -0.20727519 -7.982941356263458 -8.235541398136213 3.330989107072183 
C 1.70134633 0.24282457 0.06584487 -16.437390062876826 33.96010046696564 -25.679592734744283 
C 1.41347539 -1.06600793 -0.00129194 32.620926671034695 -11.557324976424033 -8.546641549698375 
C -1.01702501 -0.72748566 0.05710593 -78.50864963845132 4.719591481686437 10.254234529118527 
C 0.48922897 1.1707837 -0.05618516 2.8994510409172585 -43.00744190953787 27.36130042653932 
N 0.14699985 -1.42311262 0.27830857 -34.04667014664791 -50.525165510282314 -2.3878439660572455 
N -0.84407611 0.62904454 0.07659206 84.4665560927755 -25.001775052894715 1.4180119223897196 
O -2.17619649 -1.18628311 -0.06203828 47.309157169346676 -8.067955238732658 5.930384733654838 
O 0.65346471 2.32195147 -0.28335408 4.714443832523368 75.88664751943723 -16.157577799627862 
12
Properties=species:S:1:pos:R:3:forces:R:3 energy=-259811.81754905163
H 2.05868398 -1.93473134 -0.21496135 1.4228571871859192 6.914022105946288 -4.262893850386881 
H -0.28996774 -2.5140965 -0.35625288 21.56453163676754 45.659971805574294 31.778334411482934 
H -1.43438644 1.11798282 0.5511867 -14.13516119055938 38.57453215242305 6.980342705437686 
H 2.63386054 0.59553578 -0.47191835 3.913769161146074 1.0770871856858004 -5.018541710805657 
C 1.62042421 0.21041727 -0.35750869 -20.096691514001826 -4.380683826582699 21.06357204908449 
C 1.32852376 -1.10248194 -0.17798893 -10.952724629272593 -27.891152544021537 -0.9703134870124244 
C -1.08431041 -0.64609006 0.11813723 -3.261588930322895 -113.43428117614863 7.6524269425271925 
C 0.54271428 1.18938072 -0.04290961 73.8271407996748 -4.1506238711627494 -23.231899194646658 
N 0.02895289 -1.56712239 0.11249694 -23.395289919187523 -31.082349951200225 -49.54264280977462 
N -0.60780383 0.57608876 0.39185623 -51.473548422859864 36.40938300726564 6.034630261856971 
O -2.25628498 -1.08317683 0.05950148 46.905073232061454 38.594828665455786 0.6455740217728542 
O 0.76891352 2.38493907 -0.12464312 -24.31836741063171 13.709265260943937 8.87141066046411 
12
Properties=species:S:1:pos:R:3:forces:R:3 energy=-259808.9545071823
H 1.9798909 -1.76482943 -0.42855623 30.66329858066547 -43.94212028828045 -10.01083527274595 
H -0.04614966 -2.45795295 0.16020019 -16.44628372072594 -26.72649603151122 2.8409378871963393 
H -1.46898042 1.37616346 -0.09617213 10.029024581778968 -28.342945619472566 -2.533127203217304 
H 2.70149157 0.57228019 -0.08635663 -9.379521934878895 -7.7427378876113275 -3.255306450418278 
C 1.65159098 0.21497683 -0.09005143 15.151651734945471 -20.565322062492807 -19.470442817824583 
C 1.22372126 -1.04919303 -0.3375133 44.62883399962123 23.365376397467276 27.818772398982272 
C -1.06097636 -0.70144768 0.10695931 -43.507030688091106 36.92566103122802 -0.27573303884883466 
C 0.62148443 1.15488221 -0.02476543 -56.681398162999756 9.787555842070168 -15.057942226741927 
N -0.01180097 -1.50018793 -0.11478691 30.592521665681137 -30.805863915986837 -21.058379338721657 
N -0.77787761 0.59715296 -0.26887642 35.035857161437214 50.978734945661074 21.417413934448472 
O -2.11388921 -1.11839287 0.52657031 -33.295718137573466 -9.205909432916778 11.531236913399955 
O 0.77723832 2.33810409 0.09686227 -6.791233894039266 46.274067021845454 8.0534052144915 
12
Properties=species:S:1:pos:R:3:forces:R:3 energy=-259807.66631813042
H 2.10562541 -1.88579419 -0.11354725 -2.315542085207052 -7.3558424263958395 3.7857574075290037 
H -0.36658532 -2.56486754 -0.04491674 25.613945681607326 24.03238532047755 7.1811294825025245 
H -1.42115068 1.25348544 0.42901576 22.811130755236498 -12.382937464410254 -25.367995724163617 
H 2.69920952 0.39920914 -0.52721606 21.48907902939667 10.4337049870506 -0.9583983571366987 
C 1.65786229 0.16675803 -0.44814527 -30.397426829639738 -14.919288915053126 27.934406552515462 
C 1.30512424 -1.13594815 -0.10193746 10.467457011498526 5.8893363523074935 -43.59984371558347 
C -1.0270724 -0.69938863 0.10792953 -47.75303370349094 29.595195175228323 -1.6802194863816151 
C 0.65413955 1.18825775 -0.19426131 -74.00839710410295 90.91848508166045 62.053692822590904 
N 0.00651999 -1.57330078 -0.02455001 15.261606991486738 -36.85132665310404 1.7366171353554911 
N -0.74059473 0.6313444 -0.10349978 38.785180217310995 19.924562474168948 14.201296801967516 
O -2.16031193 -1.05862121 0.3885202 -10.190701794907568 -15.324814810730947 4.302455212141853 
O 0.66859652 2.42011797 0.21738506 30.236701830811516 -93.9594603070202 -49.58889694551632 
12
Properties=species:S:1:pos:R:3:forces:R:3 energy=-259809.72497529056
H 2.14414225 -1.92836581 -0.26150053 -15.140854834316643 7.534159080449617 10.300174422282888 
H -0.23374078 -2.48551777 -0.02964287 -20.564864335568842 -67.25724396143706 3.2764650553518537 
H -1.41144469 1.41594667 -0.26475983 -46.076766558657475 20.23298859927114 0.836577775203661 
H 2.55207414 0.54612999 -0.11601236 -12.093913743271699 -1.5168169036302857 3.4837015130888713 
C 1.50049638 0.17741255 -0.0338774 109.85093867798138 -50.82271528474556 2.0141134901005446 
C 1.33929946 -1.18146128 -0.04054068 -24.43938993500042 34.240828184062536 -17.764282310228666 
C -1.04203238 -0.72294181 0.12953171 -69.63655594506439 76.48668957048574 -23.512371960218548 
C 0.54199433 1.1927655 -0.05467801 4.98044246640108 41.379540847730006 -7.502022144267089 
N -0.00499111 -1.54818231 -0.03152468 63.1979615138479 9.924856131944857 4.233576796653047 
N -0.73584299 0.7139616 -0.12608455 20.725413832882175 -70.73084109338828 20.384953938028502 
O -2.19911341 -1.09150513 0.29345395 11.512942066293794 -0.06687556374118431 3.2397959111294155 
O 0.89907417 2.37734251 -0.113592 -22.31535439134791 0.5954315788195246 1.009317512875518 
12
Properties=species:S:1:pos:R:3:forces:R:3 energy=-259799.5277058616
H 2.08170133 -1.73551746 -0.80427077 10.359493934315463 -26.531892125383095 -1.28376630753094 
H 0.11072759 -2.63257369 0.04935486 -19.858685371748955 32.37291575661209 -7.354860566569296 
H -1.42834005 1.23416641 -0.24050873 -54.87577572930348 38.220112772209404 -2.3936758339641737 
H 2.70079648 0.53158495 -0.32164441 11.152343372606577 7.178250309001503 -0.025154821860446527 
C 1.71550107 0.14740952 -0.09770583 -51.29815363186478 84.3934442961505 2.130903819154121 
C 1.34980227 -1.08210059 -0.36394763 -16.27388431369444 -35.70529938923501 1.6971055780844746 
C -1.1247468 -0.77436366 0.05280195 105.79196335804328 45.928096616588476 16.345954959440558 
C 0.5291207 1.17742376 0.01172808 51.220251118211735 -26.512224097505033 -0.7116503421286643 
N 0.07602391 -1.58866571 -0.13344256 -34.154004738676306 -37.518373522387805 -0.263815537331016 
N -0.74870488 0.57679797 -0.02391603 86.37172227422434 -7.776440107575301 -13.529568311191976 
O -2.20899059 -0.93494202 0.48792517 -74.2740340625615 -70.67964564134563 6.076621370936323 
O 0.7256842 2.38383678 0.03080748 -14.1612350237309 -3.3689448671301268 -0.6880928212179195 
12
Properties=species:S:1:pos:R:3:forces:R:3 energy=-259807.06599472996
H 2.19254736 -1.88294194 0.22091298 3.1563864445361967 14.095989963928723 -4.2677153987621494 
H 0.02517771 -2.18571432 0.91646922 -11.768327601804891 -47.62049092765501 23.93181228005658 
H -1.48297646 1.18355765 -0.114835 -7.421810837036413 13.523269229792707 -3.031132910673399 
H 2.6441793 0.64543495 -0.12488302 19.569960477514126 8.273817329876724 -7.734017359635005 
C 1.64459888 0.24998008 -0.1724874 56.348675750474825 -1.5844905249357972 -0.8133012938809482 
C 1.46855846 -1.06262826 0.03183029 -68.24227111599507 -30.31219238445588 19.918524273399917 
C -1.03561085 -0.74874424 -0.01791951 -76.59853383995419 -12.952100735406622 37.775201016291504 
C 0.59100305 1.19043194 -0.12419637 -65.60866929550366 -36.844056384267645 0.6749444374537827 
N 0.11682669 -1.53152496 0.19251848 28.176471760210678 19.199993797559177 -37.33158536277748 
N -0.68053177 0.56779406 -0.14776651 -14.792726234754939 -16.46712571144009 -15.788464910826423 
O -2.26983588 -1.11168851 0.12803984 104.85675966057708 14.556211855378622 -15.279118010881131 
O 0.54724876 2.37497886 -0.01161285 32.324084831736236 76.13117211998299 1.9448544260557963 
12
Properties=species:S:1:pos:R:3:forces:R:3 energy=-259815.32240380708
H 2.0397597 -1.87712845 -0.17609221 1.0404607310210376 -5.171475865358051 -5.327931908418696 
H -0.22265675 -2.53665492 -0.12412329 5.711899577470255 33.41353894511649 6.700356126494881 
H -1.30044261 1.48312435 0.02348312 -29.31016648519559 2.548915224631059 2.3451129046448473 
H 2.80170706 0.29789926 -0.02113477 -6.177381771082647 18.826291781307592 -3.379814102842796 
C 1.70779686 0.17261554 -0.01350423 6.633673851584285 57.82936068681676 -4.996682285633571 
C 1.30265595 -1.06466774 -0.14530418 -26.792179845100627 -88.0283225770008 23.493568395883422 
C -1.14928078 -0.67090469 0.12096833 -0.5986925866975346 -22.59528760834362 -4.465413112000726 
C 0.65571524 1.21382075 -0.05030161 -5.68423911573845 -108.77310679667833 22.495078614983942 
N 0.0048798 -1.51477976 0.04141488 -11.675782569869058 -17.827405936178565 -18.215974590890735 
N -0.71375373 0.67231186 0.14792286 25.839462756597943 -11.741928853666614 -6.697938237380967 
O -2.27608446 -1.19545797 0.14236552 33.808519334227356 38.50098990275817 1.012500256564456 
O 0.79825326 2.36096948 -0.22330867 7.204424936961982 103.01842991077488 -12.962860875583011 
12
Properties=species:S:1:pos:R:3:forces:R:3 energy=-259817.2757309292
H 2.17787284 -1.76415241 0.37489666 -3.37543486571789 3.348788280980885 -18.96312485768994 
H -0.13453164 -2.55646 -0.14560529 13.992140499956136 5.82901363566954 15.179912222126832 
H -1.4250073 1.20688787 0.25978401 -6.240254002970682 -3.866259240916084 -5.494615658005827 
H 2.7012183 0.45399 -0.25629933 -22.624086458280114 15.715300938075389 7.2164705071528275 
C 1.59840081 0.27809071 -0.10291225 64.04794499598279 -51.911492294308246 -7.483417797867779 
C 1.3584064 -1.07678879 0.05747624 13.865708259973069 13.254754283654217 19.147410934892047 
C -1.04869419 -0.77424457 0.07223346 20.80577336774367 2.9381159219610393 6.887055349526714 
C 0.54740182 1.23618016 -0.10920338 9.762206545558088 22.667556286204515 -3.171984734582504 
N 0.10856627 -1.60553023 0.20308179 -49.93805246610434 -17.635349173658426 -23.71411213740481 
N -0.65491486 0.53997133 0.13023941 -32.574411654662754 56.255575754289204 4.623428509737583 
O -2.21361889 -1.11562423 -0.01527878 5.851653331090255 -15.245980241735317 1.053031619935505 
O 0.63950208 2.46885161 -0.22945051 -13.573187552568239 -31.350025336037763 4.719948413821449 
12
Properties=species:S:1:pos:R:3:forces:R:3 energy=-259822.75290018486
H 2.15721004 -1.74005352 0.29615843 22.557072153476486 -27.51207638678699 0.660776247589614 
H 0.04232647 -2.51820097 0.22418971 -13.57637978282555 -25.007404145402685 -0.9704047952330086 
H -1.49709354 1.26777847 0.0480084 0.5109667314948771 -6.39714879981855 -1.0940562848619182 
H 2.70774093 0.57337635 0.17014179 -8.977932965075615 2.468917365188762 -7.273582020396725 
C 1.65764139 0.2392383 0.04692429 28.68813931194406 88.92528235989474 11.24596750169477 
C 1.38365593 -1.03314364 0.13181405 -33.86775939624981 -40.3705778953474 6.352731500877959 
C -1.06835378 -0.76889119 0.03665454 40.94496233641173 38.68047814800594 15.757592059879515 
C 0.57006884 1.23341737 -0.03109093 -19.766218604002194 -39.131751833838585 -23.845584116835717 
N 0.10827732 -1.53009765 0.10258114 -1.6212497915577737 -4.770346994120833 -2.4735740844385603 
N -0.72282337 0.59372987 0.1317477 3.649378500607482 11.440943755631517 -4.521814318437742 
O -2.19562547 -1.17357458 -0.01569104 -27.701661898246126 -21.20970670575598 -4.0498018083220035 
O 0.60981842 2.3928731 -0.37445181 9.16068340402244 22.88339113235006 10.211750118483815 
12
Properties=species:S:1:pos:R:3:forces:R:3 energy=-259801.80983038415
H 2.29516628 -1.62820696 -0.1063231 63.42553717417533 -60.27437071388604 -8.34678208469194 
H 0.22688228 -2.51113703 0.10551693 -22.273663294993337 -39.96164632162389 0.7469474914002455 
H -1.5891537 1.16828301 0.26752635 -25.752489897759848 24.12685968325612 0.7392325396713969 
H 2.5586428 0.82289198 -0.21233419 8.982724867924722 4.49159959817167 9.98829637211419 
C 1.62780206 0.34228957 0.08723158 -15.659981200432826 -26.46798230007933 -13.618940086007242 
C 1.48452621 -1.02480144 -0.02546848 -83.56293199559995 99.46530094705265 6.589296870559276 
C -1.11749205 -0.77256736 0.03528147 128.90433890612405 27.347528300904695 37.745828228968485 
C 0.43624525 1.21131813 -0.00150992 67.22420105797497 18.473998578230404 -20.146750949481902 
N 0.20820444 -1.54972822 -0.1283785 -35.831659294134234 33.684136193012726 6.662176246259139 
N -0.77520096 0.5991002 0.35408936 1.3875754535879434 -34.40624073348777 -28.97856823102278 
O -2.20410882 -1.2156342 0.14370287 -43.17811831858873 -30.27516867974052 -11.488990852795594 
O 0.65557548 2.36620139 -0.41656563 -43.66553227245705 -16.204014551810726 20.10825445502673 
12
Properties=species:S:1:pos:R:3:forces:R:3 energy=-259810.54388848002
H 2.05252324 -1.85725311 -0.55267393 22.058695284032822 -25.18658407717835 0.7592088810215635 
H -0.20531063 -2.51849951 0.07397738 -1.147509540177213 -3.5001535942886943 -8.967076773394458 
H -1.55373426 1.3090044 0.41973968 28.46531286490806 -6.84132653250864 -3.51566650521965 
H 2.66066082 0.38088359 -0.48015333 33.76767609992107 23.78334392756549 -1.644376859428621 
C 1.69595282 0.19150469 -0.09275623 -41.09766762750213 -62.090008592141466 -3.8223221994993453 
C 1.33376943 -1.1544035 -0.19535953 -27.814862746991803 39.99291523680035 -11.529742778881301 
C -1.10800108 -0.63364036 0.14887825 50.33170236400096 -41.577371372925796 -13.55789520435194 
C 0.64510385 1.14557178 -0.01288635 -49.13948499872675 119.57545508739595 0.7793808828444105 
N 0.02321157 -1.57043042 -0.24069958 -13.816552420130467 35.51588937929077 34.916863576879145 
N -0.74043706 0.64929821 0.30746969 38.68253791916379 18.052666873823128 -10.892643820128132 
O -2.19941674 -1.09683988 0.27757783 -46.120937206820386 -16.382107085686705 5.958026222249898 
O 0.7143547 2.41100811 -0.18798976 5.831088822501001 -81.34271925014603 11.516244577908434 
12
Properties=species:S:1:pos:R:3:forces:R:3 energy=-259813.29151228705
H 2.17436209 -1.92575042 0.08171989 -19.368845228019396 37.076895904220706 9.486326464899483 
H -0.09502647 -2.49103658 0.13371914 -1.2797582323936039 -12.741776399664392 0.12315225896831253 
H -1.7156971 1.1902148 -0.26479934 -7.6316857466020025 16.666702951037447 3.749170084958777 
H 2.55269306 0.64821561 0.18715696 1.0508342935362494 4.512972836714672 -4.282591523791107 
C 1.54724281 0.24580139 0.01570524 31.858812528449082 40.934633835096285 13.39036596435862 
C 1.37000047 -1.0846161 0.09687559 52.22517753575188 -24.774165003756938 -23.52533535589943 
C -1.02658274 -0.74182011 0.00505013 77.89028309477048 51.10226785318533 -11.772666521014214 
C 0.48479984 1.26540512 -0.11421132 -24.13503710519312 -20.22420166531621 0.9528582012072214 
N 0.14857456 -1.53971102 -0.11101834 -53.531149528200494 -10.965642963753698 -3.7124914541679663 
N -0.85128022 0.67231738 -0.21215891 39.127252828787974 -63.465394991191936 2.4295599646537966 
O -1.9838258 -1.31210393 0.37751793 -98.99659213437259 -25.85721212602269 15.612440448855624 
O 0.63209101 2.47055594 -0.10596003 2.7907076934855644 7.734920955272476 -2.4507885330291193 
12
Properties=species:S:1:pos:R:3:forces:R:3 energy=-259816.8156404105
H 1.8874316 -2.0096967 -0.38846349 21.30452258499595 16.836965508543063 0.7400341546988641 
H -0.09174844 -2.59170062 0.14261632 -4.595577130817284 38.273968020859485 -13.937016422786254 
H -1.44711917 1.27158011 0.36714417 -34.95545019373386 26.253332089159287 2.34764107511609 
H 2.68492261 0.39489641 -0.41657959 -3.9049158212125383 11.063962944186226 1.2638883893276374 
C 1.62742583 0.17957089 -0.21196674 22.758812330662746 12.715957518017879 12.563995736723655 
C 1.27109909 -1.11090828 -0.18706298 55.16372746821595 -34.20657811477506 -17.618933852911045 
C -1.04983012 -0.70995661 0.15629943 -5.884799400983396 21.457647656736842 -7.887814791909289 
C 0.62502606 1.20238891 0.04996864 -29.089575310832338 -32.928765814718844 -30.07044853426428 
N 0.0463107 -1.55624519 -0.072776 -80.4251427825368 -55.13119209616179 34.0313849133579 
N -0.71449087 0.61895839 0.28438111 85.74185208057094 -10.819106313747437 -0.5285168829838042 
O -2.20761686 -1.04548922 0.14385933 -29.088798598046846 -29.383829688607225 6.259191565084071 
O 0.74451221 2.38043507 -0.16592142 2.9753435878964023 35.86763829050758 12.836593464725414 
12
Properties=species:S:1:pos:R:3:forces:R:3 energy=-259812.5906431195
H 2.13267664 -1.86733785 0.18484087 -6.686921959858527 17.851220780256412 2.3273884374620777 
H -0.2173587 -2.58561424 0.30344177 18.55428222054492 38.67428460467981 -7.81780273149998 
H -1.39234142 1.3684364 -0.14364038 -28.3001185065554 13.443292715129248 -0.4956115347631126 
H 2.65185323 0.77061687 -0.08300165 13.045364374896666 -7.864535938944481 1.4521718692776602 
C 1.68199882 0.28146338 -0.09349915 -21.096004254707612 -5.169953271134282 1.1834826074453275 
C 1.38554094 -1.02930348 0.1025296 -31.89106686091522 -59.40210209682334 -10.813055068946895 
C -1.16365065 -0.73196405 0.02887389 38.85634963906174 -35.05469985786687 9.315734249142926 
C 0.58453357 1.22992128 -0.15471117 14.678225726142248 18.33626664949477 15.374120064025416 
N 0.03549572 -1.57155221 0.06814739 5.781697004270136 24.309957567769583 7.79050868847156 
N -0.72140149 0.63436441 -0.26247679 -13.526364222724201 -28.96003621970731 13.844211696041228 
O -2.25033545 -1.29966821 0.25998937 38.05402904807183 57.10263144426017 -19.060394200675223 
O 0.7828077 2.45350549 -0.01877989 -27.46947102240553 -33.26632519129266 -13.100755261802023 
12